LAMMPS data file via write_data, version 12 Dec 2018, timestep = 20000

200 atoms
1 atom types
200 bonds
1 bond types
200 angles
1 angle types

-3.5000000000000000e+01 3.5000000000000000e+01 xlo xhi
-3.5000000000000000e+01 3.5000000000000000e+01 ylo yhi
-3.5000000000000000e+01 3.5000000000000000e+01 zlo zhi

Masses

1 1

Atoms # angle

97 1 1 -3.7908888709271782e+00 -2.9600455920234108e+00 -5.6372698565828347e+00 0 0 0
101 1 1 -4.2220848293593720e+00 -1.1115602671185099e+00 -7.1181762887756683e+00 0 0 0
102 1 1 -4.1464178641159091e+00 -3.5628744528296236e-01 -6.5817864053888426e+00 0 0 0
2 1 1 -3.9883080553078343e+00 -6.5183099547592080e+00 -3.3364649717557064e+00 0 0 0
1 1 1 -3.8018280717161144e+00 -7.4572547635301367e+00 -3.5126977579770675e+00 0 0 0
192 1 1 -1.6866554699205746e-01 -6.3214835713079616e+00 -3.6217013664161213e+00 0 0 0
94 1 1 -1.3902892700568137e+00 -2.6125117555656554e+00 -5.4112497286187855e+00 0 0 0
141 1 1 -7.4629084655638622e-01 -2.8917678611908344e+00 -1.0551692493450691e+00 0 0 0
4 1 1 -5.4028226405390560e+00 -6.1425311352671459e+00 -3.0106796980032384e+00 0 0 0
3 1 1 -4.8365888193879893e+00 -6.9127116098636856e+00 -3.2115390839207225e+00 0 0 0
200 1 1 -3.6340038340264789e+00 -7.3281702780238236e+00 -2.6114749381590037e+00 0 0 0
196 1 1 -1.4475981907714184e+00 -7.6470333333009526e+00 -2.6461996375612933e+00 0 0 0
199 1 1 -2.7839208953412031e+00 -7.0782726802488876e+00 -2.3602200598348761e+00 0 0 0
197 1 1 -1.4801047495191950e+00 -7.3310747016992632e+00 -3.5295611023999913e+00 0 0 0
74 1 1 -2.3320210573320694e+00 -4.0383329573819520e+00 -3.2197369307087492e-01 0 0 0
198 1 1 -2.1360492916846328e+00 -6.8100647977710560e+00 -3.0386809027495745e+00 0 0 0
75 1 1 -2.8144707223005878e+00 -3.5329642791060576e+00 -1.0032738307513898e+00 0 0 0
76 1 1 -2.9110926035360012e+00 -2.7107527580938653e+00 -1.5466595603617415e+00 0 0 0
190 1 1 -8.3043252220206720e-01 -4.7911146918678353e+00 -3.9524660613490092e+00 0 0 0
195 1 1 -4.9752188355241445e-01 -7.3338346216069192e+00 -2.8012728460529210e+00 0 0 0
136 1 1 -2.9838851422158355e+00 -4.7603226241266478e-01 -5.2248873820173458e-01 0 0 0
9 1 1 -7.1059883638786356e+00 -6.8206653790543497e+00 -2.6941640107605407e+00 0 0 0
7 1 1 -5.9657275901158373e+00 -8.0907240845138428e+00 -3.0463723548703485e+00 0 0 0
5 1 1 -5.8757055713512241e+00 -7.0056693426488525e+00 -3.1149139603032370e+00 0 0 0
6 1 1 -6.2321045878699248e+00 -7.5907353311345380e+00 -3.8311133920396312e+00 0 0 0
100 1 1 -4.2956103757971960e+00 -2.0403337669654342e+00 -7.2181697912224765e+00 0 0 0
8 1 1 -6.8094914259994788e+00 -7.7323723831210369e+00 -2.9377355357489350e+00 0 0 0
72 1 1 -4.0461159719833937e+00 -4.7315643949500767e+00 -1.8975946197151475e-01 0 0 0
73 1 1 -3.2466896873089524e+00 -4.2546761092412435e+00 -3.3364129798349618e-01 0 0 0
78 1 1 -2.3053569008265673e+00 -1.5928368980976204e+00 -2.1866159942190539e+00 0 0 0
77 1 1 -2.9160288484083128e+00 -1.7746927851596350e+00 -1.4487835876782695e+00 0 0 0
142 1 1 -5.4640060671172408e-01 -3.6795720689388016e+00 -5.4101688540744941e-01 0 0 0
99 1 1 -4.8624514683407014e+00 -2.0461678028808530e+00 -6.5046977319241508e+00 0 0 0
79 1 1 -1.2889948514495726e+00 -1.5512715542553124e+00 -1.6987598436112545e+00 0 0 0
189 1 1 -2.8243078289739382e-01 -4.0195129021540659e+00 -3.5087951313133838e+00 0 0 0
98 1 1 -4.7628214744948192e+00 -2.8211610981498261e+00 -5.9370550524461594e+00 0 0 0
140 1 1 -1.5688251713508967e+00 -2.3880231077930718e+00 -8.5527898351868559e-01 0 0 0
191 1 1 -9.0957349116638320e-01 -5.7538569182660311e+00 -3.5591979629557953e+00 0 0 0
19 1 1 -8.8706610507730073e+00 -3.3878576844580643e+00 -5.5479823294564679e-01 0 0 0
12 1 1 -7.4489977216968120e+00 -5.3082431085685924e+00 -2.8487617680796284e+00 0 0 0
11 1 1 -7.1117089675875738e+00 -5.6504992362261337e+00 -2.0054207772847588e+00 0 0 0
10 1 1 -6.4390828824988846e+00 -6.2683570728515425e+00 -2.3503670142405748e+00 0 0 0
14 1 1 -9.0342581009540393e+00 -4.2392798827899840e+00 -2.9149373940510350e+00 0 0 0
104 1 1 -4.4627663234566226e+00 -1.0802637805863395e+00 -5.5576459135996137e+00 0 0 0
103 1 1 -5.0120910083752426e+00 -7.1689777504404784e-01 -6.3494257956533255e+00 0 0 0
92 1 1 -4.2501051478271168e-01 -3.2622918468759172e+00 -5.7679067031928275e+00 0 0 0
15 1 1 -8.7076547834565563e+00 -3.6848387872560240e+00 -2.2187771903704814e+00 0 0 0
106 1 1 -3.6376378643901583e+00 -1.3868243901656268e+00 -4.5447672517611375e+00 0 0 0
109 1 1 -2.8783267122980680e+00 -4.5840311286448404e-01 -3.1732759876266297e+00 0 0 0
96 1 1 -3.0223874516782638e+00 -3.0807766368528977e+00 -5.1788363943732847e+00 0 0 0
95 1 1 -2.3199101042610257e+00 -2.4529126865614534e+00 -5.1228382114023185e+00 0 0 0
80 1 1 -8.3244620639423839e-01 -7.3411908911736723e-01 -1.9354575197026949e+00 0 0 0
16 1 1 -8.4316674400106422e+00 -4.5694632684838021e+00 -1.9035589878870376e+00 0 0 0
13 1 1 -8.4152116778350177e+00 -5.0317179179280771e+00 -3.0873384979496659e+00 0 0 0
93 1 1 -3.9870481888808240e-01 -2.3238823537209918e+00 -5.5046577087023048e+00 0 0 0
139 1 1 -2.3435167511314945e+00 -2.2778858886035986e+00 -3.8857119552904290e-01 0 0 0
61 1 1 -3.7054932290518272e-01 -6.4708895215266726e-01 -4.8361572660646235e-01 0 0 0
150 1 1 -1.0008653909655127e-01 -1.9513531839766938e+00 -3.9874880860886726e+00 0 0 0
20 1 1 -9.3883465789116087e+00 -2.7026655364614753e+00 -8.3783384801818919e-02 0 0 0
17 1 1 -9.3376807087419493e+00 -4.8678429209151153e+00 -1.5874974260279102e+00 0 0 0
82 1 1 -4.2550651612741736e-01 -1.6518901727191382e+00 -2.5546892736605034e+00 0 0 0
18 1 1 -8.8612825528282606e+00 -4.1335836387069289e+00 -1.1047050069597659e+00 0 0 0
194 1 1 -2.9769900480396461e-01 -6.5050161438207654e+00 -2.3230834518132650e+00 0 0 0
107 1 1 -3.2813378656251451e+00 -6.1341830017094912e-01 -4.0765308589925882e+00 0 0 0
108 1 1 -2.4599582913085367e+00 -1.1803244400088782e-01 -3.9654424796012226e+00 0 0 0
105 1 1 -4.5751749720783677e+00 -1.2782146806143548e+00 -4.6227722082553271e+00 0 0 0
36 1 1 -4.8193684581633889e+00 -1.1065383806458009e+00 4.7644155771768100e+00 0 0 0
35 1 1 -5.6719719799822492e+00 -1.3145380377337939e+00 5.4287117699896585e+00 0 0 0
42 1 1 -1.2500258646186708e+00 -2.5933652534622564e+00 6.0427831393394191e+00 0 0 0
66 1 1 -1.6415105552759233e+00 -2.0601026586395617e+00 2.3393792691467206e+00 0 0 0
65 1 1 -1.4061969534598231e+00 -2.0151775234736449e+00 1.4597389311046147e+00 0 0 0
40 1 1 -2.8799295292042482e+00 -1.8482862153325263e+00 6.3095932639802736e+00 0 0 0
32 1 1 -5.9066593535420555e+00 -2.7426813491064093e+00 4.2648461666050652e+00 0 0 0
41 1 1 -2.0976458438367871e+00 -2.1873661080221529e+00 5.7912827167363705e+00 0 0 0
138 1 1 -2.7689861124774007e+00 -2.0466357187507578e+00 4.3034777452391659e-01 0 0 0
67 1 1 -2.3750097301433701e+00 -2.6286824270147764e+00 2.5510732911290752e+00 0 0 0
21 1 1 -9.5782270694283831e+00 -3.5673812453604028e+00 2.3716614704695424e-01 0 0 0
38 1 1 -3.7572135118822945e+00 -1.1217047655395191e+00 5.8022878984984176e+00 0 0 0
68 1 1 -2.4984430047098805e+00 -2.9643866647565305e+00 1.6702226199006223e+00 0 0 0
45 1 1 -8.5542408006811466e-01 -1.4862852281518173e+00 7.6178147917923420e+00 0 0 0
44 1 1 -1.7122633739161723e+00 -1.8611849886647971e+00 7.4214428566495574e+00 0 0 0
180 1 1 -2.2879216660824203e-01 -3.4418740522341746e+00 1.9604277480514249e+00 0 0 0
22 1 1 -8.8258410302517323e+00 -3.1763236766022129e+00 8.4944080720855275e-01 0 0 0
34 1 1 -6.1083571944458743e+00 -1.9491827076881214e+00 4.8871588372233870e+00 0 0 0
28 1 1 -7.7253336488474824e+00 -1.7563060194007172e+00 5.3945715445012263e+00 0 0 0
25 1 1 -8.9977917635127138e+00 -2.1100718885580703e+00 3.0268397794192543e+00 0 0 0
23 1 1 -8.8775430927117274e+00 -2.4641571612167845e+00 1.5401086337020462e+00 0 0 0
24 1 1 -8.6163739266126935e+00 -2.7327249489217857e+00 2.4439300704995115e+00 0 0 0
31 1 1 -6.5485972543404243e+00 -3.0767574939188198e+00 4.9317913562293487e+00 0 0 0
27 1 1 -8.2308707838940638e+00 -2.2464289460488023e+00 4.7875602131289208e+00 0 0 0
26 1 1 -8.8976185091200222e+00 -2.2292575037499467e+00 4.0173409076975259e+00 0 0 0
29 1 1 -7.4338870488111484e+00 -2.6673985104867866e+00 5.3481638305808445e+00 0 0 0
30 1 1 -7.0791371540480030e+00 -3.5342088417217541e+00 5.5650830345866407e+00 0 0 0
33 1 1 -6.7555095780621901e+00 -2.1811311780228122e+00 4.2753484321671396e+00 0 0 0
64 1 1 -5.6940741083157009e-01 -1.6770864204147775e+00 1.5696503602830487e+00 0 0 0
39 1 1 -3.3417561905571405e+00 -1.1469871125401270e+00 6.7245774065718109e+00 0 0 0
37 1 1 -4.1820839826117169e+00 -5.2448080229425242e-01 5.2083265176348563e+00 0 0 0
62 1 1 -9.0399343492274364e-01 -8.5213086739052546e-01 3.0965836385156503e-01 0 0 0
43 1 1 -9.8629146772639897e-01 -2.4285460728421757e+00 7.0092847775304090e+00 0 0 0
63 1 1 -6.8975504552734868e-01 -1.8186565425862233e+00 6.4156861259675269e-01 0 0 0
46 1 1 -4.0023138455022193e-02 -1.1485991153865207e+00 7.8936195912770897e+00 0 0 0
70 1 1 -3.7078707693678434e+00 -3.6620826764552925e+00 1.2003649493879271e+00 0 0 0
69 1 1 -2.7893726125042440e+00 -3.6413606364870716e+00 1.1003759715544266e+00 0 0 0
137 1 1 -2.4581932205660912e+00 -1.1537259550338181e+00 9.2202918189163256e-03 0 0 0
71 1 1 -3.9781844002664393e+00 -3.9815590414480138e+00 3.6425506594902601e-01 0 0 0
174 1 1 -3.9838655115443838e-01 -9.0094155119470165e-01 2.6508361561346714e+00 0 0 0
173 1 1 -3.3341363696675264e-01 -2.0012580290474896e-01 2.0781268403786020e+00 0 0 0
110 1 1 -2.5670000909186346e+00 3.9389425083861773e-01 -2.8256508073760069e+00 0 0 0
114 1 1 -7.4981691718067689e-01 1.4947301514221689e+00 -1.2846886438850296e+00 0 0 0
167 1 1 -1.6867753531207152e+00 7.1962850088196462e-01 -3.4879067688833981e-01 0 0 0
164 1 1 -1.8043714618200088e+00 2.7022232784437530e+00 -1.9702634743185417e+00 0 0 0
165 1 1 -2.2145524837368424e+00 2.3386282750547296e+00 -1.1923770816284294e+00 0 0 0
162 1 1 -1.1140002605247354e+00 3.8313088620313995e+00 -1.6871166622340583e+00 0 0 0
115 1 1 -9.7094244784198563e-02 1.8908090505401596e+00 -6.5105377720349611e-01 0 0 0
163 1 1 -1.5079461910659941e+00 3.4439179973170075e+00 -2.5262249381124264e+00 0 0 0
132 1 1 -3.0731373035307610e+00 2.8221776078277609e+00 -4.9609563575760213e-01 0 0 0
135 1 1 -3.5441593603178747e+00 3.2231812314469888e-01 -3.7545052055251954e-01 0 0 0
159 1 1 -1.2650676503633551e-01 4.9588724332631919e+00 -3.6611074627206399e+00 0 0 0
160 1 1 -6.2835983961314534e-01 4.3057396758229647e+00 -3.1953284026273421e+00 0 0 0
166 1 1 -2.0088358500329897e+00 1.5359850790431810e+00 -7.7813848211779491e-01 0 0 0
161 1 1 -7.7481044024846701e-01 4.4896419985304297e+00 -2.2833213459234263e+00 0 0 0
112 1 1 -1.1000304109951626e+00 4.7777656705907162e-01 -2.5943526508753068e+00 0 0 0
111 1 1 -1.9464517989857599e+00 7.2290411398426191e-01 -2.2169730896132549e+00 0 0 0
113 1 1 -1.0486850559517613e+00 6.7526494896174794e-01 -1.6602328008994491e+00 0 0 0
117 1 1 -4.5312313804259902e-01 3.3810677143592591e+00 -4.9067360706628366e-01 0 0 0
126 1 1 -3.2500175707118015e+00 4.6640628335812488e+00 -1.8443096501065620e-01 0 0 0
116 1 1 -2.6645240973607187e-01 2.7048799549080940e+00 -1.1249584793285086e+00 0 0 0
127 1 1 -2.6282407922785449e+00 4.0552179932184655e+00 -6.1860248628170489e-01 0 0 0
134 1 1 -3.3420566167523260e+00 1.2614602584985235e+00 -2.0459888878836302e-01 0 0 0
131 1 1 -3.8379255578959195e+00 2.6918237769349331e+00 8.0076542265532319e-02 0 0 0
169 1 1 -1.0635632250692046e+00 9.0794190165725996e-01 6.3709621111183856e-01 0 0 0
123 1 1 -1.4253636283943725e+00 4.9470271948682862e+00 1.6147469423298094e-01 0 0 0
130 1 1 -3.5023502007096812e+00 2.5760516928671331e+00 9.2917433231259072e-01 0 0 0
171 1 1 -1.1692174989804971e-01 8.5139135361824958e-01 1.0332849545823135e+00 0 0 0
170 1 1 -7.8280715301434733e-01 1.0078447070534619e-01 1.0500706845346293e+00 0 0 0
128 1 1 -2.8646396136158079e+00 3.8941309365996672e+00 3.2142986066459578e-01 0 0 0
168 1 1 -2.0158864419049212e+00 7.5757054820495662e-01 5.6642067530068141e-01 0 0 0
122 1 1 -1.0215009248540030e+00 4.2838590008048030e+00 8.1626815405537667e-01 0 0 0
124 1 1 -1.8790760318994841e+00 5.7405268740647228e+00 3.3561955302507473e-01 0 0 0
129 1 1 -3.0817938189048371e+00 3.3676251684593930e+00 1.1138635631671705e+00 0 0 0
125 1 1 -2.7718375479815744e+00 5.3530300684216190e+00 2.1031065264481519e-01 0 0 0
172 1 1 -1.1425842863813213e-01 7.9379890230911121e-01 1.9896195176935589e+00 0 0 0
121 1 1 -1.2471809174587510e-01 4.6773474636911727e+00 1.0796353576029529e+00 0 0 0
133 1 1 -2.9112977645843232e+00 2.1040809576356070e+00 1.3701862175162810e-01 0 0 0
87 1 1 2.3564758534379338e+00 -1.8545743468485447e+00 -5.3789781221986681e+00 0 0 0
185 1 1 1.2915197266883045e+00 -2.7562822854308235e+00 -9.7599081141504396e-01 0 0 0
86 1 1 2.5414491435689612e+00 -1.9148399494847035e+00 -4.5035735926921037e+00 0 0 0
83 1 1 3.8175685584370772e-01 -1.9943940986329907e+00 -2.8625166618958588e+00 0 0 0
90 1 1 9.8938858931550833e-01 -2.4268551609078353e+00 -5.9882419849056827e+00 0 0 0
193 1 1 4.8572214504516364e-01 -6.2184182723808457e+00 -2.9474504919223525e+00 0 0 0
152 1 1 3.5324907342351891e-01 -5.3544696004924919e-01 -4.4800214553063995e+00 0 0 0
184 1 1 1.6663290481818767e+00 -2.4778506673142173e+00 -1.3970437100649447e-01 0 0 0
186 1 1 5.0427776940382707e-01 -2.5761651645712824e+00 -1.5831646441071716e+00 0 0 0
148 1 1 7.7727025367266356e-01 -3.4728868166086793e+00 -4.0387951887147393e+00 0 0 0
88 1 1 2.0234656295663522e+00 -2.7645503615857896e+00 -5.1565537320521759e+00 0 0 0
84 1 1 1.2613774926783881e+00 -2.2866568389548281e+00 -3.1020683180914146e+00 0 0 0
146 1 1 1.0855335840212494e+00 -4.6650523274926501e+00 -2.8382740414684524e+00 0 0 0
91 1 1 4.7979929399510607e-01 -3.2390739476414274e+00 -5.8148262352286002e+00 0 0 0
85 1 1 1.8474924299436919e+00 -2.1107576826282095e+00 -3.8393195992394444e+00 0 0 0
89 1 1 1.8662264666087613e+00 -2.6948484796060441e+00 -6.0912745173003202e+00 0 0 0
145 1 1 1.1046872235520970e+00 -4.8479766344191288e+00 -1.8514456440259548e+00 0 0 0
144 1 1 5.8877679454022902e-01 -4.4207406252092989e+00 -1.1931210564333297e+00 0 0 0
147 1 1 1.1328788088822002e+00 -4.2684217492915399e+00 -3.7021828162440888e+00 0 0 0
188 1 1 4.1310818766723018e-01 -3.6834960020867102e+00 -2.9725216476146277e+00 0 0 0
143 1 1 3.6094074826526729e-01 -3.6227585949746626e+00 -7.1866158360251697e-01 0 0 0
187 1 1 1.5744472820734634e-01 -3.2531080094848055e+00 -2.1918840737574663e+00 0 0 0
149 1 1 4.3787651810644014e-02 -2.8777548685750043e+00 -4.0963633864428344e+00 0 0 0
151 1 1 2.3050817864456041e-01 -1.4649359988340236e+00 -4.7694793643124465e+00 0 0 0
81 1 1 1.1861432026140757e-01 -1.0392865991841032e+00 -1.9523372346480117e+00 0 0 0
178 1 1 1.0765447650775786e+00 -3.2499269562020907e+00 2.8391234623175237e+00 0 0 0
182 1 1 6.8740616137244004e-01 -2.9568883283511607e+00 1.1415648202671878e+00 0 0 0
57 1 1 1.9950088051458787e+00 -4.3381306998684233e-01 2.1934556040129021e+00 0 0 0
183 1 1 7.5239196835889766e-01 -2.5551356852457516e+00 1.9826420185881255e-01 0 0 0
51 1 1 2.6920048155360998e+00 -6.6179337933834925e-01 6.1200045084765016e+00 0 0 0
176 1 1 6.6602233824458179e-01 -1.3736900961984837e+00 2.8583456321688723e+00 0 0 0
59 1 1 3.9460921748298367e-01 -4.1119713412913378e-01 1.2245682961066513e+00 0 0 0
181 1 1 2.7902818882023483e-01 -3.7681534338113862e+00 1.1243952736522691e+00 0 0 0
54 1 1 2.8160917018690217e+00 -3.8401891515916287e-01 4.6179760191173758e+00 0 0 0
55 1 1 2.6139812604095400e+00 -5.7869409190268270e-02 3.6979550823452705e+00 0 0 0
47 1 1 7.9926812339352993e-01 -7.3868917399091261e-01 8.0384775703722777e+00 0 0 0
58 1 1 1.1356974322498923e+00 -6.1283143708864385e-01 1.7437907497371994e+00 0 0 0
177 1 1 6.6052277330945608e-01 -2.3926359132508650e+00 2.6888013785227072e+00 0 0 0
179 1 1 3.2677838667379422e-01 -3.8492062832035785e+00 2.6789831901824068e+00 0 0 0
60 1 1 1.1830133972596438e-01 -7.1387552450587088e-01 3.3273154881267164e-01 0 0 0
175 1 1 3.7565107517622492e-01 -4.2809981514858025e-01 3.0361141791585275e+00 0 0 0
52 1 1 1.8032148521140441e+00 -7.1079148166393491e-01 5.7539467871179495e+00 0 0 0
157 1 1 4.1838202110417616e-01 3.4720211404983110e+00 -3.8194580346657849e+00 0 0 0
158 1 1 4.4781956714805754e-01 4.2607006903177895e+00 -3.3079786029645279e+00 0 0 0
155 1 1 3.8655775678871679e-01 1.7018808084151213e+00 -4.3960500395638560e+00 0 0 0
154 1 1 6.5072121031071206e-01 9.7811201373921275e-01 -4.9367073538359563e+00 0 0 0
119 1 1 6.8276496667162356e-01 3.8917356190987209e+00 -1.9273999506633083e-01 0 0 0
156 1 1 3.7083221834265379e-01 2.7729503166834020e+00 -4.4559582811961382e+00 0 0 0
153 1 1 2.7345614688099468e-01 3.9871456452214205e-01 -4.2454582445883382e+00 0 0 0
118 1 1 2.0574485225966412e-02 3.4712371630504650e+00 3.0697809089346906e-01 0 0 0
48 1 1 6.5860871315879599e-01 6.8047353147481712e-02 7.5762972587274389e+00 0 0 0
49 1 1 1.5775976906255793e+00 2.0633177176731690e-01 7.1546343501235778e+00 0 0 0
120 1 1 6.1008161086416435e-01 4.5931088072936124e+00 4.8832278275721958e-01 0 0 0
50 1 1 2.3252545473026038e+00 1.6772125662020507e-01 6.5231366839543661e+00 0 0 0
56 1 1 2.2193941989354817e+00 1.5453735085310261e-01 2.9100723183171198e+00 0 0 0
53 1 1 2.2845276183586622e+00 1.5580248647091148e-02 5.3059337798625315e+00 0 0 0

Velocities

97 -4.9716568235154535e-01 -5.8729771631669769e-01 -2.0234580052718143e+00
101 -1.6915859355472684e-01 -8.4392206909137146e-01 -8.0731747393532360e-01
102 -8.3833026376341790e-01 3.4503326218366337e-01 -1.1836184276777353e+00
2 4.2904798756843782e-01 1.6023252836121933e+00 -1.1014452115525897e+00
1 -8.9936178254332610e-01 3.9434277611304286e-01 -4.8138136261668951e-01
192 1.5530095663449492e+00 1.0319816062562310e+00 -3.2152657349246672e-01
94 7.1529780669197629e-01 1.8390496812383155e+00 4.5311280171679691e-01
141 8.9063860204542877e-01 -2.2000526518182731e-01 1.3276870621848576e-02
4 -8.7231859816192769e-01 6.2171692064539785e-01 -2.0358648540219879e+00
3 2.0806343107393332e-02 -1.7690656309051667e-01 -5.6293883231233321e-01
200 1.3227163974118323e+00 -9.0730891318006512e-01 2.1721758680797310e+00
196 1.0641736057429778e+00 -3.0529160425095014e-02 3.2683303650374351e-01
199 -5.0222905082379110e-01 1.0288170650378898e+00 -1.2014014631544285e+00
197 2.5063211785356559e-01 -5.9953844393416367e-01 -1.8867977572785901e+00
74 -2.0936511957692527e+00 -7.9386487388372051e-01 8.3056946645811613e-01
198 1.0542325572391253e+00 3.0732270118932359e-01 -1.5577975418641654e-01
75 8.4612362210562198e-01 4.3016907594107517e-01 9.3717304832789050e-01
76 8.3710330993178150e-02 -3.2459021039239000e-01 -1.6727638838096043e-01
190 1.3017572182409123e+00 4.2450759810568550e-01 1.0492857622079443e+00
195 -2.0449779447278635e-01 -1.2560206825333440e+00 -5.0020970494803552e-01
136 -1.1205546690883754e+00 9.0906943318278399e-01 1.0670983496433810e+00
9 6.7699823976263229e-01 -1.6765334138824051e-01 -1.1237670084664335e+00
7 1.2769182644105440e-01 -1.3665243033077374e+00 -7.9090397194209450e-01
5 -1.6634085685982789e+00 -2.7929227064400020e-01 -4.1563697487502965e-01
6 1.0795033787926902e+00 -2.4090376533208802e-01 7.3360604344061486e-01
100 1.1587840355992165e+00 -2.8537419828993793e-01 3.3388402414205476e-01
8 2.8430197385069413e+00 9.3711272125249423e-01 -1.0363912400581403e+00
72 5.0525049812454281e-01 1.1602817685679903e+00 1.0489576697123473e+00
73 -1.0943309133724537e+00 -1.0613513010948348e+00 5.7800645809553897e-01
78 1.1709303294845932e+00 9.7834848143118125e-01 -1.8963876501406463e-02
77 -4.4181246032368654e-01 -1.8282469294075793e-01 -6.8464010170230616e-01
142 3.1780458774948359e+00 -5.6423428167592227e-01 1.1957960608803726e+00
99 5.7791473828602757e-01 6.2071040823623491e-01 -2.3554662025078266e-01
79 6.9985895186741676e-01 5.4832484930684511e-01 4.2697720221591368e-01
189 8.0231662069900211e-01 -2.4355565392342129e+00 -8.7032655872094355e-02
98 5.1695206311547359e-01 1.2808830929045698e-01 3.1965112608959728e-01
140 -8.6330954759356993e-01 5.5787708724226104e-01 2.1958107582948116e+00
191 2.0074453735468665e+00 -6.5168051702245289e-01 -4.7865173683792417e-01
19 2.3143372126090420e-01 2.2439806277778631e+00 1.7771607053768217e+00
12 1.7032813713472014e-01 1.7153354886388168e+00 -2.5619150805088664e-01
11 4.2911164142025282e-01 9.5307111402314140e-02 -3.1492259715888560e-01
10 -6.0792614100186571e-01 1.8329206132025884e+00 -2.1777710187563244e+00
14 7.4279448339251308e-01 -3.8818315308772339e-01 3.5253269923229502e-01
104 1.2884343396993374e+00 -1.4577522605796596e+00 -5.0942082301117175e-01
103 -1.2630025663311613e+00 -5.2760603265768791e-01 1.0541764283528956e+00
92 1.0110440225468476e-02 -1.6728814516008537e+00 -1.9694610748141828e+00
15 2.3243073091763183e-01 -2.0641040717374874e+00 -2.1658225238966295e+00
106 1.3903021330810110e+00 -1.2118059372791872e+00 -2.3356341036079822e-01
109 1.5001916281946109e-01 1.6912748141712524e+00 -6.4399382818742668e-01
96 -2.0221102592289881e+00 5.2620581709331982e-01 -8.7186463541682269e-01
95 1.3099807362068408e-01 2.7772822194262553e-02 -9.3850176744621594e-01
80 2.0542478524205405e+00 -2.9140640495141179e+00 -2.6301126795743424e-01
16 4.2054384769363135e-01 -1.4756295464663676e+00 -2.6314652384344361e-01
13 -2.3216989551948455e+00 -8.0032316742335652e-01 7.8218203322484381e-01
93 -8.3196333803883027e-01 1.5882077866115574e+00 6.6291114162694365e-01
139 1.0056730881085625e+00 -4.8490887371950997e-01 -9.6413153475155233e-01
61 -4.5318843437290679e-01 1.0339830453716392e+00 -7.2401473824796148e-01
150 4.0160272775745694e-02 1.1446149695802006e+00 2.5398057534419605e-01
20 1.7172870351395414e-01 3.0137173614510659e-01 -1.5732909009749436e+00
17 -9.4146442657938834e-01 -8.5358132436444267e-01 -1.5028707860653199e+00
82 -1.2520739597321362e+00 -6.4235894450886677e-01 1.8531097788285997e+00
18 4.8535586412942250e-01 7.3724221006362001e-01 -2.0568584141379245e+00
194 -6.8877460501170595e-01 1.9776390099687760e+00 -3.0740976686570798e-01
107 -1.2581840222272760e+00 -1.4199213461989619e+00 3.1411191927652804e-01
108 -4.7882927063524861e-01 7.5544688966892282e-01 5.8173184698521263e-01
105 2.9813483686996406e-01 -2.9101433590529502e+00 -1.2251404118728573e+00
36 4.0518120641828903e-01 -1.1276157834296525e+00 -5.2153344025957060e-02
35 5.1922689133497679e-02 1.5475642748399183e+00 -5.5744020772022218e-01
42 1.7130073779314852e+00 1.3161930283150971e+00 -9.0600090407857325e-01
66 -1.1591538812392341e+00 -1.0938704929567764e+00 -9.8480582867636968e-01
65 -2.9818557229839016e+00 -5.8221359809219064e-01 7.2809482086923860e-01
40 -1.0623565207207371e+00 -4.9241609911373674e-01 -1.4427565983312844e+00
32 9.6694080829707568e-02 3.2312414142330109e-01 -4.7627650672316479e-01
41 1.0288258679228799e+00 -1.2580857990752976e+00 -6.9479677547889451e-01
138 -7.8024462325859834e-01 1.6935392130633693e+00 -1.3674997237362942e+00
67 6.0962635366243093e-02 1.2410610231557879e+00 -1.1155105021833334e+00
21 1.3518613645038819e+00 -1.0776633806926832e+00 6.2624836986907673e-01
38 -9.6135106182082475e-01 9.7691232036372266e-01 6.8017186128850626e-01
68 2.0379557486064859e-01 -1.0899148765402851e+00 -2.6975717518228587e-01
45 -4.4039068030786255e-01 -3.8517773777389108e-01 1.2048533709935532e+00
44 1.5843169582387506e-01 8.2912089290810648e-02 1.4016682334056036e+00
180 8.9777707699651621e-01 6.4004526363373893e-01 -1.3224723480171106e+00
22 -1.0537569448698241e+00 -2.2561496873635192e+00 1.1394592679473334e+00
34 -4.9619864604454944e-01 6.4573637599415279e-01 5.4263902691105170e-01
28 6.6765837615646528e-02 5.2411785236532604e-01 1.0567516776481842e+00
25 1.2270344711781542e+00 8.4122508998573153e-01 1.0361480239097978e+00
23 2.6715176388740863e-01 -1.5310311321133450e+00 -1.4248728830231723e+00
24 -1.0942813358419526e-01 5.8031992254046083e-01 1.1037261625204620e+00
31 -1.2543054745912885e-02 -1.0592894363256755e-01 1.6317177015032833e+00
27 1.0442824248651950e-02 -1.0735029813457544e-01 8.6203385946263000e-01
26 -1.7232313222060369e+00 2.1495818328515539e+00 2.2349003545720363e+00
29 8.3546111066526896e-01 -1.0676499488552331e-01 1.0572686166613410e+00
30 2.4710946646769880e+00 2.4323116368404087e+00 6.2356673482079461e-01
33 7.2578902006157658e-02 5.5906832889487923e-01 3.3013478880616265e-01
64 8.3624484676784272e-01 -1.0557224711991993e+00 2.0199201067989350e+00
39 4.7033121465378080e-01 7.1289587638848761e-01 4.2891502945584992e-01
37 1.1036775028202213e+00 -5.4645084813442724e-01 5.5011848875127145e-01
62 -4.5453513155574643e-01 -4.7412190903288709e-01 -2.4547298851626151e+00
43 1.9262511030388771e+00 -9.1731663056019452e-01 1.8112908220825499e-01
63 4.0320818828045968e-01 8.7479741303318970e-01 1.5442429628612599e+00
46 5.4129813842681906e-01 1.1453248134289966e+00 1.5843388903903330e-01
70 -8.9042211159312878e-02 -9.5345886462921559e-01 1.8622936599103683e+00
69 1.4583315907123973e-01 1.0426425283999599e+00 2.6084145833123213e+00
137 9.5583820090156246e-01 2.0192135566438543e+00 -1.8893897129724153e+00
71 1.1629735248798014e+00 1.7831680184554675e+00 -1.8593737940511736e+00
174 1.2509742835626192e+00 5.1836538363481455e-01 5.7298218500803633e-01
173 -1.6752330532666995e-01 -1.8136795056985058e+00 1.7153702360467207e+00
110 6.3105451925965383e-01 -3.5629434280859879e-02 -8.2246358906807870e-03
114 -4.9658912872407956e-01 1.0595059433245482e+00 -7.3517134725032351e-01
167 2.6394898436262793e-02 -1.0131616497552756e+00 -1.9083715825151775e+00
164 8.8540549712438021e-01 5.1970693088563003e-01 5.7466426124480707e-01
165 -3.1795861902839923e-01 -1.2520944401903098e+00 9.5498180551926082e-01
162 1.7569729535836243e+00 -9.9309576094665397e-01 -2.2044012657400134e+00
115 -2.7123846093366405e-01 -3.4375190587897717e-02 -9.9044721558924451e-02
163 -1.8376287969912994e+00 -1.6833574385241437e+00 3.0858723089422840e-01
132 2.3073258586419310e+00 -7.3393460042720760e-01 1.7741131386430678e-01
135 8.7391779134859915e-01 3.4878700188035056e-01 -1.3277075541575130e+00
159 -5.8950787657293269e-01 -7.9915404357563757e-01 2.0995985108968182e-01
160 4.4279613431066500e-01 -1.3946501766887247e+00 -9.3177366178575260e-01
166 3.3828041910307061e-01 -1.6597774980269415e+00 4.3360906274417638e-01
161 2.9077476571167615e-01 6.3696661057983972e-01 -1.2817629385308393e+00
112 7.3140003243363871e-01 -1.2737259536462846e+00 4.2497993072163798e-01
111 -1.1957202114764514e+00 4.6199331982087138e-01 2.4905490431948113e-01
113 -8.3048403263784465e-01 2.1208698301341311e+00 5.7552758358988232e-01
117 -1.3509503394574554e+00 1.7595589760909385e+00 -1.2665520024969741e+00
126 4.7523588398500488e-01 -3.7647267643727533e-01 -5.8025724569162784e-01
116 -8.5864492345412680e-01 -1.2025522571008412e-01 -3.7813637055385912e-01
127 6.0138937404316894e-01 -1.7438243819843302e+00 -2.4138499064887493e+00
134 -4.8393971604926778e-01 6.2255256116195666e-02 -5.6434918631551823e-01
131 9.7261515398552295e-02 -6.8776156471158978e-01 1.9821967461442752e-01
169 2.2358766098324998e+00 1.8281197336834260e-01 1.3917233145488468e+00
123 8.5233945024579783e-01 1.2004372742217353e+00 4.7666357436721107e-01
130 -1.1587461928455531e-01 4.8876922509934734e-01 -9.1448518197110151e-01
171 -5.3100233928108453e-01 2.4665947248836731e-01 5.6031254092728855e-01
170 7.6516727449817068e-01 6.5436854604917785e-02 -1.8701807933085773e-01
128 8.4793346492543575e-01 -6.9867795934260471e-02 -6.9341493821275524e-01
168 -2.8534183709532146e-01 2.5506565097113876e-01 -7.5558987009497883e-02
122 1.3120995190094661e-01 -1.3941654050623111e+00 -3.8011457149895317e-01
124 2.1829683130246835e-01 1.3160099795281712e+00 -7.3958155141754323e-01
129 2.0408218038058275e+00 -2.1328411240500217e-01 -5.4812438284428633e-01
125 4.6320955346167170e-01 -1.1204327934431491e-01 -1.0625538278782178e+00
172 4.7963232714004256e-01 -8.2796058113035476e-01 1.8982752434867796e+00
121 -3.5003997306544921e-01 5.6322579086043789e-01 -1.3919906078123880e+00
133 4.7538466569030824e-02 -2.5163351677431467e+00 6.3864200441300545e-01
87 -8.7146720542809719e-01 4.5493092105052557e-01 2.0231783943852375e+00
185 4.3237501654512550e-01 2.5548521970243362e-02 -4.1100606211994406e-01
86 -2.1563068369373029e+00 -1.2112008633668410e+00 -8.5631271386631924e-01
83 -6.1861091249010491e-01 1.9741042848489473e-03 -7.3061624148159743e-01
90 -8.1018238232833173e-01 1.4782452758119735e+00 -2.3264446341386535e-01
193 1.6022156757086505e+00 2.5243491146818111e+00 4.7532076521013178e-01
152 -6.5185091539965612e-01 -1.0320767184224726e+00 1.4885946499350506e+00
184 -1.3026854237110432e+00 -2.1109034064210283e-01 -6.0810961731227231e-01
186 -3.6160606844135412e-02 -3.7901905641158307e-01 1.4568504225412089e+00
148 2.1712920299312782e-01 1.2303935340598344e+00 4.9481228050835829e-01
88 -2.3209760708270375e+00 -3.1665511297263826e-01 -2.7153724444049464e-02
84 -1.0619953749512683e+00 -1.5915989418090399e+00 9.0669162823139116e-01
146 2.0841369491791801e+00 -2.5758862242263436e-01 1.6463594318788064e+00
91 2.2332855180907596e-01 -4.1933124005992634e-01 1.1460669300070259e-01
85 1.8178494375338183e+00 -8.5660449097592228e-01 -1.2433656548139724e+00
89 1.0879349136697589e+00 -5.4289363864404760e-01 1.2773614582868902e+00
145 -1.0352818377662378e+00 3.6156342160630500e-01 -2.7125209894348579e-01
144 -8.7730043533682578e-01 -4.1994833364818890e-01 1.3444987189477102e+00
147 2.1798064235277786e-01 -1.5495872363518994e+00 -7.4787284839685586e-01
188 -1.0140135829249428e+00 4.1116167849457885e-01 -9.5977709505128006e-01
143 -5.6533277132876769e-01 -2.4000134718196744e-02 9.6746576231897552e-01
187 1.3763976315876814e+00 1.1922626780211849e+00 -1.2895543735668586e+00
149 2.7051855455507690e-01 -1.8645122880783779e-01 -1.5021576303708151e+00
151 1.0493238884433487e+00 -6.3449327171170800e-01 -2.5798413632282963e-01
81 -4.2264263034182614e-01 -5.7723346585141400e-01 -1.6483023824727294e+00
178 -4.6534889634783427e-01 -6.9736268354850306e-01 -1.5869286440670818e+00
182 5.2788074349023062e-01 -3.9703640074257568e-01 1.8956665546480398e+00
57 -1.3019790826432918e+00 -3.0511988526681455e-01 2.8477633073078679e-01