LAMMPS data file via write_data, version 12 Dec 2018, timestep = 20000

100 atoms
1 atom types
100 bonds
1 bond types
100 angles
1 angle types

-2.5000000000000000e+01 2.5000000000000000e+01 xlo xhi
-2.5000000000000000e+01 2.5000000000000000e+01 ylo yhi
-2.5000000000000000e+01 2.5000000000000000e+01 zlo zhi

Masses

1 1

Atoms # angle

34 1 1 -4.7387104972052740e-01 -3.2243549130014637e+00 -2.5614064814504793e+00 0 0 0
36 1 1 -1.4220495494515315e+00 -1.8489327641202757e+00 -1.6455145397549997e+00 0 0 0
37 1 1 -2.0622608820364250e+00 -1.1952730236925631e+00 -2.0638790683297255e+00 0 0 0
9 1 1 -9.7879988077287372e-02 -1.8501285565318182e+00 -1.2082673359146463e+00 0 0 0
47 1 1 -2.9419294974129602e+00 -1.6350831089335283e-01 -3.9516174472853305e-01 0 0 0
99 1 1 -1.5229488138897460e+00 -4.1699562151759144e+00 -2.9258338887224520e+00 0 0 0
40 1 1 -2.0842217841075072e+00 -1.9376129198968006e-01 -3.4807720724154096e+00 0 0 0
35 1 1 -9.3671966094999048e-01 -2.5744696400168303e+00 -2.0408687044301694e+00 0 0 0
38 1 1 -2.7706007351393973e+00 -1.1297650130120767e+00 -2.7790373888407034e+00 0 0 0
2 1 1 -1.5735103363275562e+00 -3.5835777897400485e+00 -5.1031570883426323e+00 0 0 0
39 1 1 -3.0341673736539860e+00 -5.2950151995539030e-01 -3.5166465234704365e+00 0 0 0
46 1 1 -2.0704175622580907e+00 -9.7986054145284126e-04 -2.4619940800293216e-01 0 0 0
3 1 1 -6.9676727366205693e-01 -3.1937789117503415e+00 -5.0003583281177768e+00 0 0 0
4 1 1 -7.6766451579080325e-02 -2.9534865450807830e+00 -4.2453106258201965e+00 0 0 0
14 1 1 -4.7420624002634465e-01 -6.1480298980480423e+00 -1.1279048909297740e+00 0 0 0
13 1 1 -7.1228981739474284e-01 -5.2163980304672570e+00 -1.2507945366991251e+00 0 0 0
12 1 1 -1.0106278520551757e+00 -4.4516787937412179e+00 -7.0035454206521386e-01 0 0 0
94 1 1 -1.8788554820384293e-01 -5.4065904320176426e+00 -1.9991918066723610e-01 0 0 0
1 1 1 -1.4913795382762725e+00 -4.4941104778785039e+00 -4.7856452461085563e+00 0 0 0
86 1 1 -5.6510170979050356e-01 -8.6425548726504076e+00 -2.2396463141662390e-01 0 0 0
100 1 1 -1.6568692386931607e+00 -4.1881961572226594e+00 -3.8843529509437564e+00 0 0 0
11 1 1 -6.9479811712050576e-01 -3.5563928216191094e+00 -7.1479489822130338e-01 0 0 0
98 1 1 -1.0701161338331886e+00 -4.9068075509383533e+00 -2.5543937425286791e+00 0 0 0
42 1 1 -1.4583916211150514e+00 -4.4644750230633329e-02 -1.7286713090674142e+00 0 0 0
97 1 1 -4.4324781458089152e-01 -4.2896088687332252e+00 -2.1074049144856759e+00 0 0 0
15 1 1 -1.4038929130568623e-01 -6.4824063015873223e+00 -3.1186676450002027e-01 0 0 0
85 1 1 -6.6858772149817891e-02 -7.8520825165025308e+00 -2.5196470431606732e-01 0 0 0
10 1 1 -1.8556178951391014e-01 -2.8188490064189282e+00 -1.1455943178799908e+00 0 0 0
93 1 1 -1.0335491061625663e+00 -5.2388239476022598e+00 1.0096169482533078e-01 0 0 0
92 1 1 -1.3667041560779776e+00 -5.9089255243260013e+00 7.0962947065729820e-01 0 0 0
49 1 1 -2.5016965981314789e+00 -9.9945676996357802e-01 1.0485189779755411e+00 0 0 0
48 1 1 -2.6786562333300550e+00 -2.0856190913807776e-01 5.2216458754464623e-01 0 0 0
90 1 1 -1.5893032995438807e+00 -7.4039649894288058e+00 6.1496250766465088e-01 0 0 0
51 1 1 -2.4520062204525623e+00 -2.5747850760032320e+00 1.4113486522266880e+00 0 0 0
52 1 1 -3.1857783780164781e+00 -3.1917245047843279e+00 1.6620291116733004e+00 0 0 0
50 1 1 -2.5419904820053203e+00 -1.6257308468608165e+00 1.7669834518997738e+00 0 0 0
55 1 1 -1.6982179714519599e+00 -3.2289970877742760e+00 1.8672975880528606e+00 0 0 0
54 1 1 -2.4225152177151661e+00 -3.8159978392431997e+00 2.0389599326449153e+00 0 0 0
53 1 1 -2.9964044037659239e+00 -3.3329909520249821e+00 2.6163430118591422e+00 0 0 0
56 1 1 -1.0034799572016264e+00 -2.6540335666209645e+00 2.3317664509678853e+00 0 0 0
18 1 1 -8.4533526292827432e-01 -8.0329316093335930e+00 1.5363609131266625e+00 0 0 0
89 1 1 -1.9421384585029058e+00 -8.1646187153066201e+00 1.0610129241899713e+00 0 0 0
88 1 1 -1.8709094700752047e+00 -8.6654407272284217e+00 2.5286398935712501e-01 0 0 0
91 1 1 -1.8916787659610190e+00 -6.5877985562190604e+00 2.8244437596824123e-01 0 0 0
17 1 1 -4.9011171113912327e-01 -7.3089990295297422e+00 1.0396863140536614e+00 0 0 0
19 1 1 -4.6355815253012200e-01 -8.8124876334653397e+00 1.0024117025759840e+00 0 0 0
57 1 1 -1.3578911279307976e-01 -2.2115850638910031e+00 2.3757103209739778e+00 0 0 0
87 1 1 -1.1180195335202299e+00 -9.2998073443203051e+00 3.5970467051008992e-01 0 0 0
16 1 1 -7.3288731688759334e-01 -7.0985639821011732e+00 8.6527058719684358e-02 0 0 0
45 1 1 -1.5493231624484551e+00 7.9593238942859823e-01 -3.8999048721072427e-01 0 0 0
44 1 1 -1.2841154762137508e+00 1.2589081979916907e+00 -1.2171150149203167e+00 0 0 0
41 1 1 -1.6085973861023952e+00 5.7860556303948409e-02 -2.6929040734297436e+00 0 0 0
43 1 1 -2.0018990462990787e+00 8.3324471323384197e-01 -1.6500708153669605e+00 0 0 0
71 1 1 1.1079036784070653e+00 -8.6866614140090874e+00 -2.5653823695721027e+00 0 0 0
75 1 1 3.6306837800730980e+00 -1.0147196505118840e+01 -2.4088931304560472e+00 0 0 0
74 1 1 2.6820705648468657e+00 -1.0287312382462881e+01 -2.2097165744493146e+00 0 0 0
72 1 1 1.7213996164257288e+00 -9.4470849866832243e+00 -2.6966660067886528e+00 0 0 0
73 1 1 2.5718638386841248e+00 -9.6798907313532272e+00 -2.9453714488683818e+00 0 0 0
77 1 1 3.0536806795576239e+00 -9.8781295093112309e+00 -9.7759964011948131e-01 0 0 0
76 1 1 3.6037307065772444e+00 -1.0479126557895517e+01 -1.4897477179113761e+00 0 0 0
70 1 1 9.8412856991187403e-01 -7.9150186892655148e+00 -2.1191029537096964e+00 0 0 0
69 1 1 1.4651955451039278e+00 -7.0942435082930295e+00 -1.8915237788578518e+00 0 0 0
78 1 1 3.7133881803914459e+00 -9.9913635688716074e+00 -2.9242083103948197e-01 0 0 0
68 1 1 1.7661836165825164e+00 -6.2400934087694120e+00 -1.5245075632518761e+00 0 0 0
63 1 1 1.2248365541097690e+00 -3.7275755136983517e+00 -4.1051045313055229e-01 0 0 0
82 1 1 1.9625866194148331e+00 -7.9019020560610977e+00 -1.7825133671557800e-01 0 0 0
95 1 1 4.0916699954367347e-01 -4.7441460779650422e+00 -4.1380241399554757e-01 0 0 0
5 1 1 5.4792174507264679e-01 -2.5846264570112778e+00 -3.6392906152382700e+00 0 0 0
7 1 1 2.9312731403958137e-01 -1.3726976108101943e+00 -2.2463126121960064e+00 0 0 0
31 1 1 1.7234240553799069e+00 -4.6304438500120968e+00 -3.1572145423464915e+00 0 0 0
28 1 1 3.4916367306625178e+00 -5.6469918641362593e+00 -3.2664106912966955e+00 0 0 0
26 1 1 3.2271198357816258e+00 -6.9533200480380408e+00 -2.4203195827348356e+00 0 0 0
22 1 1 1.5204165441923734e+00 -9.3487161007822639e+00 -8.3014240336204470e-01 0 0 0
67 1 1 1.3037864176733929e+00 -6.0779653294404277e+00 -2.4253523499686085e+00 0 0 0
65 1 1 1.4316660201414877e+00 -4.5193099302396869e+00 -1.8775441917338744e+00 0 0 0
29 1 1 3.0599285810246233e+00 -4.8885119641293828e+00 -3.6966052231678659e+00 0 0 0
32 1 1 1.1446552289343104e+00 -3.8637854251886172e+00 -3.1345559093329776e+00 0 0 0
30 1 1 2.3368900487797788e+00 -4.2193844527161177e+00 -3.7787489811464030e+00 0 0 0
96 1 1 1.3869526646668998e-01 -4.5645479074187456e+00 -1.4082589805462788e+00 0 0 0
27 1 1 3.7446885739723861e+00 -6.6077177009060684e+00 -3.1658317616212597e+00 0 0 0
33 1 1 2.3143994864461603e-01 -3.9106370373004502e+00 -2.8089492351967880e+00 0 0 0
64 1 1 1.2058935671978108e+00 -3.6650004608221121e+00 -1.3817140061390887e+00 0 0 0
23 1 1 2.2280283167111454e+00 -8.7877491084195700e+00 -1.0722159757891601e+00 0 0 0
8 1 1 7.1655310026389429e-01 -2.0157468985711562e+00 -1.5810602358078600e+00 0 0 0
6 1 1 3.4713683175505328e-01 -1.8414801972604247e+00 -3.0732212239060628e+00 0 0 0
24 1 1 2.2056188456436985e+00 -8.3104828663906556e+00 -1.9539637452623813e+00 0 0 0
66 1 1 8.9348946649447269e-01 -5.2687863469822362e+00 -2.0749760526659702e+00 0 0 0
25 1 1 2.4289569476856685e+00 -7.5268600608368716e+00 -2.4979491170418275e+00 0 0 0
59 1 1 9.3647081078101990e-01 -3.0382363026632175e+00 2.1697414781045121e+00 0 0 0
61 1 1 1.5381747679677287e+00 -3.4118360559735250e+00 1.0678427074265773e+00 0 0 0
80 1 1 3.2428765861906688e+00 -8.9752069923701647e+00 4.5871663762997041e-02 0 0 0
60 1 1 6.4823247184612554e-01 -3.0013105860865972e+00 1.2878194281689515e+00 0 0 0
62 1 1 1.9534344806819541e+00 -3.6597251887024340e+00 1.9219104032233419e-01 0 0 0
81 1 1 2.4058513608224272e+00 -8.5816258347517316e+00 3.1301644548012675e-01 0 0 0
58 1 1 8.5019959687760716e-01 -2.1666163616826806e+00 2.5723832401847750e+00 0 0 0
79 1 1 3.9376888710223086e+00 -9.4349641473835248e+00 4.9693695308641700e-01 0 0 0
84 1 1 5.3399923906220270e-01 -7.7913554705540138e+00 5.3118850498090220e-01 0 0 0
83 1 1 1.4549801008863776e+00 -7.5103035159791025e+00 5.2322497301119675e-01 0 0 0
20 1 1 3.3009811651493287e-01 -8.9216889787841716e+00 4.9527097929953429e-01 0 0 0
21 1 1 1.2165040105280012e+00 -9.0647838380028105e+00 5.3101988605018489e-03 0 0 0

Velocities

34 -1.5929550432346147e+00 7.8184032704730255e-01 -7.3057015417920335e-01
36 -1.1004269472522135e+00 -4.1326469810805810e-01 -9.4541464752522741e-01
37 -1.5637016184705985e+00 1.2612797264841238e-01 -1.9096348727623462e+00
9 7.2077577292752437e-01 -1.2910672712318483e+00 -1.2763590677288228e+00
47 -1.8807948006919284e+00 1.6876791567843374e+00 1.4715438430110042e+00
99 2.2270934678499724e-01 9.4145618824152622e-01 5.4516758015234812e-01
40 1.5392882127553542e+00 5.3626263031526081e-02 8.3961338007248876e-01
35 -1.8440334288561564e+00 -1.0336389441641533e-01 2.4741214274583262e-01
38 3.2665085235045477e-01 8.2013260154453771e-01 -2.9053456350063205e+00
2 6.0334880114922684e-01 5.0934183961703650e-01 4.5169919458516850e-01
39 1.1606040121061918e+00 1.4214530960534311e-01 -5.7960263534000223e-01
46 -4.5302421616045174e-01 6.6474869281549914e-02 -1.1731194747919755e+00
3 -9.9964324454902520e-01 -1.1938824044197580e+00 -1.0341962523923711e+00
4 -6.7800972734777898e-01 -2.2059511830486107e+00 -1.6924724682420824e+00
14 -4.9482098249515316e-01 -8.3475335325996558e-01 -8.7803641508825536e-01
13 3.8635745113520747e-01 1.9826860759004272e+00 -1.5122557171618034e-01
12 1.0393480606704539e-01 4.2288412863677194e-01 5.2147053027397794e-01
94 4.8247425037547398e-01 -1.0413000233439467e+00 1.1102694786096969e+00
1 -1.1969909071299345e+00 1.4263061897462472e+00 -1.3883508642639866e+00
86 -4.8058125327412188e-02 7.6069481996828281e-02 -8.3133875684534964e-01
100 9.7507735866091760e-01 1.7340811514854698e-01 1.2364433103307646e+00
11 -1.7199073920358066e-01 3.3248317939334049e-01 1.8123112255655462e+00
98 -1.1619215182107896e+00 4.2557013436452074e-01 -1.3261849925509597e+00
42 -1.7059335781669382e+00 2.3978619209602808e-01 1.1823568717641417e+00
97 4.0486280627209303e-01 2.4756905467082990e-01 -1.1558969048141889e+00
15 2.9686614163487396e-01 5.3703606554173966e-01 6.6564859045443969e-01
85 -1.9179058309319158e-01 1.6533954331557107e-01 5.1001325662213659e-01
10 2.5423171761552377e-01 5.2310169265124606e-01 2.3762917514197786e+00
93 -2.0576597527099894e-01 -7.5086559265448094e-01 -3.8605175336751463e-01
92 -7.8051983773740485e-01 -1.5050516261499303e-01 -7.7794664570550065e-01
49 -1.9737573906619112e+00 5.9311494474518411e-01 -2.1284865228432306e+00
48 7.3572106486728184e-01 7.8176625156117097e-01 9.1641283020459341e-01
90 -1.6114598226720755e-01 4.1108998060475632e-03 1.3770947398578954e+00
51 6.5167103024512840e-01 1.4791260336816172e+00 -3.1897969863967079e-01
52 -1.2898239931507534e+00 -5.9577779369544559e-01 4.2008395372537155e-01
50 -1.2408864528523386e-01 -1.5604281699092553e+00 5.0959251158413196e-02
55 5.3962014473917053e-01 -1.6079387983183285e-01 1.0532977728794946e+00
54 2.9837952245230337e-01 8.7552847420591662e-01 7.0276568385683480e-01
53 5.5747885745710790e-01 -1.7728426467162057e+00 -1.0548723620597700e+00
56 -1.4282292567082711e+00 4.5986218123098327e-01 -1.1832654322371394e-01
18 -1.3696787318316223e-03 7.2177607854923864e-01 -1.0653761330065695e-02
89 -7.8533699442440952e-01 2.1031567817639071e-01 -7.1209517721460958e-01
88 -1.5656251623420379e+00 -8.6163896238294968e-01 1.4599467982047099e+00
91 1.7340696404618507e+00 6.0140399862069915e-01 5.1464209890934587e-01
17 -7.2362963915400991e-01 -3.4785069119394979e-01 8.3574943372434429e-02
19 -7.9091982654328208e-02 2.2369035331369655e-01 -1.0917305688080774e+00
57 -7.0062624038822974e-01 1.9020176309961628e-01 1.0240206019862150e+00
87 -1.4480385859464036e+00 1.1103970675810280e+00 1.0311400481480542e+00
16 5.5276962566755516e-01 -5.1447110575051824e-01 1.6654308010806316e+00
45 5.1191543817646201e-01 3.3939231311167509e-02 5.1032387308025451e-01
44 -5.2107168191390707e-01 4.8102082971442917e-01 2.2255719481757215e+00
41 1.3624283967269335e+00 -1.0094464337770004e-01 2.1797905766669681e+00
43 8.5681925483815063e-02 3.2944050347445049e+00 1.3817719397182335e-01
71 -2.2422400203715592e-01 -5.7948469665152536e-01 -9.8096056462707093e-01
75 8.3994683378012946e-01 -4.3545150723584211e-02 -3.1108092842256369e-01
74 -5.0174114797214620e-01 3.6235895588966405e-01 1.3049239996763689e+00
72 -1.2238377962537368e+00 -2.0371733803470429e-01 5.1164980021619885e-02
73 7.9442369719985628e-01 2.0953891321248774e-01 -5.5615334386529669e-01
77 -5.2137137541303402e-01 1.5588246446029388e+00 4.6841916639713560e-01
76 -4.2275306980649985e-01 -1.7901367506182811e-01 -6.4482032228958119e-01
70 -4.0865148699862064e-01 9.5918484444013785e-01 2.1316703867466508e-01
69 1.2314042824733664e+00 -3.3807447071357893e-01 3.7143853211475447e-01
78 -1.0191342469465339e+00 1.9028084109140211e-01 -2.1394924729755904e+00
68 9.3983379949669954e-01 3.9070402215740357e-01 3.4811919752318465e-01
63 7.3368925896044060e-02 -1.0976729340624263e+00 2.9915557940553872e-01
82 -8.5216189272110632e-01 6.0400018137413802e-02 2.5319219439087404e-01
95 -5.3896629818876018e-01 -7.2759065918256538e-01 -3.0059844127213360e+00
5 -2.7412823400099895e-01 -8.6840315860786499e-01 2.5424418423936135e-01
7 2.5068134097385320e-01 -1.4657424186698074e+00 -3.1744548181267640e+00
31 -8.9566270034865569e-01 -1.2848973805586077e+00 -2.4787487406077564e+00
28 -2.1457547666383764e-01 -1.8357846992322879e+00 5.0155271456578410e-01
26 -8.4043030385940987e-01 -5.5578836037330137e-01 -9.3361693794537193e-01
22 -3.8922767531244706e-01 6.7075208709803069e-01 5.8010938334443762e-01
67 3.3740866216063337e-01 -2.2104948697827194e+00 8.6789555318276146e-02
65 7.8675707708083831e-01 -9.6213190605851273e-01 -5.7416597012815973e-01
29 1.2004745375872352e+00 -1.1040825094487001e+00 -1.1638102392348662e+00
32 1.5274567015209615e+00 8.4084235303596677e-01 4.5773618584266851e-01
30 -1.0477021878195845e+00 -7.5646260030546975e-01 2.1501001259204742e+00
96 -1.2167403206030267e+00 2.0572685199118101e+00 1.7192197505392759e+00
27 1.4152118823691451e+00 -8.7368481634159390e-01 7.2567373193641715e-01
33 8.2537588086314928e-01 8.1636865763993760e-01 -8.0563856839523024e-02
64 -6.1563671827111721e-01 -1.4930628697992867e+00 -1.2113852465588646e+00
23 -9.4796838327798738e-01 4.2525449056933806e-01 2.2178892976293785e+00
8 -1.3810439002957511e+00 2.0267225059073873e-01 1.5874289406690728e-01
6 3.1749797917549638e-01 2.7648475528038213e-01 -5.0626164775203675e-01
24 -1.0907759260362666e+00 1.2942577161248505e+00 1.9120876279393012e-01
66 -8.3863300277707598e-01 -5.1040502068064086e-01 -5.7275034393290969e-01
25 1.2809753932440693e+00 -1.2681478348051420e+00 2.7347317351394412e-01
59 -1.0953098347168702e-01 1.3407064159262474e+00 1.2786543838223613e-01
61 2.0194351227973945e-01 -5.5705049542567819e-01 1.8898294905263699e+00
80 -3.8819011442031204e-02 -2.4134946961048453e-01 -7.1093673520211442e-01
60 -4.8934571455965958e-01 -2.3253804269949559e-02 1.2760277668354940e+00
62 -2.3279161317127666e+00 1.0037574821507391e+00 -1.6389168842680779e+00
81 -1.5493598534853414e+00 -1.9852257848878890e-01 -1.5274638091106909e+00
58 1.0876354122069003e+00 -2.6985973265154639e-01 -4.1394199258170766e-01
79 6.8188488816169723e-01 2.8402869273983355e-01 5.3619139846300323e-01
84 -3.0617635721087200e-01 7.9622029445977502e-02 3.6760420163325735e-01
83 1.8247435767379381e+00 -5.1832684362920201e-01 -5.9932524504770657e-01
20 -7.5394806209949483e-02 3.6119188627643151e-01 2.0786795422820910e+00
21 1.5184037341252083e+00 1.2785403836518603e+00 2.4033894167776144e+00

Bonds

1 1 34 35
2 1 36 37
3 1 37 38
4 1 9 10
5 1 47 48
6 1 99 100
7 1 40 41
8 1 35 36
9 1 38 39
10 1 2 3
11 1 39 40
12 1 46 47
13 1 3 4
14 1 4 5
15 1 14 15
16 1 13 14
17 1 12 13
18 1 94 95
19 1 1 2
20 1 86 87
21 1 100 1
22 1 11 12
23 1 98 99
24 1 42 43
25 1 97 98
26 1 15 16
27 1 85 86
28 1 10 11
29 1 93 94
30 1 92 93
31 1 49 50
32 1 48 49
33 1 90 91
34 1 51 52
35 1 52 53
36 1 50 51
37 1 55 56
38 1 54 55
39 1 53 54
40 1 56 57
41 1 18 19
42 1 89 90
43 1 88 89
44 1 91 92
45 1 17 18
46 1 19 20
47 1 57 58
48 1 87 88
49 1 16 17
50 1 45 46
51 1 44 45
52 1 41 42
53 1 43 44
54 1 71 72
55 1 75 76
56 1 74 75
57 1 72 73
58 1 73 74
59 1 77 78
60 1 76 77
61 1 70 71
62 1 69 70
63 1 78 79
64 1 68 69
65 1 63 64
66 1 82 83
67 1 95 96
68 1 5 6
69 1 7 8
70 1 31 32
71 1 28 29
72 1 26 27
73 1 22 23
74 1 67 68
75 1 65 66
76 1 29 30
77 1 32 33
78 1 30 31
79 1 96 97
80 1 27 28
81 1 33 34
82 1 64 65
83 1 23 24
84 1 8 9
85 1 6 7
86 1 24 25
87 1 66 67
88 1 25 26
89 1 59 60
90 1 61 62
91 1 80 81
92 1 60 61
93 1 62 63
94 1 81 82
95 1 58 59
96 1 79 80
97 1 84 85
98 1 83 84
99 1 20 21
100 1 21 22

Angles

1 1 33 34 35
2 1 35 36 37
3 1 36 37 38
4 1 8 9 10
5 1 46 47 48
6 1 98 99 100
7 1 39 40 41
8 1 34 35 36
9 1 37 38 39
10 1 1 2 3
11 1 38 39 40
12 1 45 46 47
13 1 2 3 4
14 1 3 4 5
15 1 13 14 15
16 1 12 13 14
17 1 11 12 13
18 1 93 94 95
19 1 100 1 2
20 1 85 86 87
21 1 99 100 1
22 1 10 11 12
23 1 97 98 99
24 1 41 42 43
25 1 96 97 98
26 1 14 15 16
27 1 84 85 86
28 1 9 10 11
29 1 92 93 94
30 1 91 92 93
31 1 48 49 50
32 1 47 48 49
33 1 89 90 91
34 1 50 51 52
35 1 51 52 53
36 1 49 50 51
37 1 54 55 56
38 1 53 54 55
39 1 52 53 54
40 1 55 56 57
41 1 17 18 19
42 1 88 89 90
43 1 87 88 89
44 1 90 91 92
45 1 16 17 18
46 1 18 19 20
47 1 56 57 58
48 1 86 87 88
49 1 15 16 17
50 1 44 45 46
51 1 43 44 45
52 1 40 41 42
53 1 42 43 44
54 1 70 71 72
55 1 74 75 76
56 1 73 74 75
57 1 71 72 73
58 1 72 73 74
59 1 76 77 78
60 1 75 76 77
61 1 69 70 71
62 1 68 69 70
63 1 77 78 79
64 1 67 68 69
65 1 62 63 64
66 1 81 82 83
67 1 94 95 96
68 1 4 5 6
69 1 6 7 8
70 1 30 31 32
71 1 27 28 29
72 1 25 26 27
73 1 21 22 23
74 1 66 67 68
75 1 64 65 66
76 1 28 29 30
77 1 31 32 33
78 1 29 30 31
79 1 95 96 97
80 1 26 27 28
81 1 32 33 34
82 1 63 64 65
83 1 22 23 24
84 1 7 8 9
85 1 5 6 7
86 1 23 24 25
87 1 65 66 67
88 1 24 25 26
89 1 58 59 60
90 1 60 61 62
91 1 79 80 81
92 1 59 60 61
93 1 61 62 63
94 1 80 81 82
95 1 57 58 59
96 1 78 79 80
97 1 83 84 85
98 1 82 83 84
99 1 19 20 21
100 1 20 21 22
