LAMMPS data file via write_data, version 12 Dec 2018, timestep = 20000

100 atoms
1 atom types
100 bonds
1 bond types
100 angles
1 angle types

-2.5000000000000000e+01 2.5000000000000000e+01 xlo xhi
-2.5000000000000000e+01 2.5000000000000000e+01 ylo yhi
-2.5000000000000000e+01 2.5000000000000000e+01 zlo zhi

Masses

1 1

Atoms # angle

57 1 1 -7.4658884842476549e+00 -3.4241103639050734e+00 -4.2590472607745684e-02 0 0 0
61 1 1 -7.6444653060992014e+00 -1.3078451830929851e+00 -1.1450489356883788e+00 0 0 0
58 1 1 -7.8921974200249867e+00 -3.4553961346622666e+00 -9.3411061254442451e-01 0 0 0
59 1 1 -8.3147303319537524e+00 -2.6597064138520286e+00 -1.3021897221552323e+00 0 0 0
62 1 1 -7.0384792596360706e+00 -6.1739505874670031e-01 -8.5968820426339054e-01 0 0 0
100 1 1 -3.5831037071568388e+00 -2.7660819114085813e+00 -1.2251266030658294e+00 0 0 0
56 1 1 -6.6260250148002271e+00 -3.7668706596649728e+00 -3.0433766514371707e-01 0 0 0
1 1 1 -3.3936461791911152e+00 -2.4396327316103088e+00 -3.5208425831448786e-01 0 0 0
98 1 1 -5.3855206355381107e+00 -2.5509716218453224e+00 -1.3919578756576643e+00 0 0 0
48 1 1 -4.4222293786588800e+00 -1.2720450660070439e+00 -6.1931330832828091e-01 0 0 0
99 1 1 -4.4384745438004005e+00 -2.4980130536888367e+00 -1.7015984512443321e+00 0 0 0
51 1 1 -4.4794200436615190e+00 -3.0150368190391723e+00 -3.5126038418491184e-01 0 0 0
49 1 1 -4.9839880560292169e+00 -2.0342932610589357e+00 -4.3709395609295237e-01 0 0 0
97 1 1 -6.0710583017695336e+00 -1.8116925600415392e+00 -1.3691262658524557e+00 0 0 0
60 1 1 -8.3996134365245165e+00 -1.7437216475252810e+00 -1.4792352047987545e+00 0 0 0
96 1 1 -6.5626254268322972e+00 -1.6549352175129664e+00 -5.7591614794805157e-01 0 0 0
47 1 1 -4.7825309955936612e+00 -5.8940912040162996e-01 -1.1543761089157285e+00 0 0 0
55 1 1 -5.6956434226147179e+00 -3.9195481133271284e+00 -2.2821216705321801e-01 0 0 0
63 1 1 -6.3467132448515962e+00 -5.8698255393514520e-01 -1.7200598193630467e-01 0 0 0
8 1 1 -2.1846759931650035e+00 -2.0293674051287436e+00 2.3370711988085233e+00 0 0 0
7 1 1 -2.3579755094887811e+00 -2.4787561732618766e+00 1.4982313849339097e+00 0 0 0
52 1 1 -4.2266579199275114e+00 -3.3837103021088812e+00 5.0021508176534413e-01 0 0 0
70 1 1 -3.4744024888204428e+00 -6.8416432748776568e-01 4.0869197906710033e+00 0 0 0
67 1 1 -5.5997689003726112e+00 -9.0382931657791887e-01 3.0397340133874300e+00 0 0 0
94 1 1 -7.5731631894270492e+00 -1.9086097515970712e+00 1.1607277991813914e+00 0 0 0
65 1 1 -6.0599336025476100e+00 -9.4514925831868790e-01 1.6836916583127295e+00 0 0 0
9 1 1 -2.4750717945884828e+00 -1.4489480830969239e+00 1.6273224467361502e+00 0 0 0
64 1 1 -6.4630833169684889e+00 -8.3558017642641225e-01 7.9613368880870650e-01 0 0 0
10 1 1 -3.1246564752383579e+00 -8.0361924997364553e-01 1.4623407815721616e+00 0 0 0
66 1 1 -6.3990369646171272e+00 -1.1284689973409017e+00 2.5817536798381306e+00 0 0 0
2 1 1 -3.2321535180527277e+00 -1.9570838688220895e+00 4.9974403016587909e-01 0 0 0
95 1 1 -7.1234058613820084e+00 -1.9405500987062401e+00 2.4357013109226588e-01 0 0 0
6 1 1 -2.3478233080491053e+00 -3.4091779199832124e+00 1.6023787713864133e+00 0 0 0
12 1 1 -5.0121193404241495e+00 -8.9480834956924671e-01 1.2186139529529578e+00 0 0 0
68 1 1 -4.9977400143602528e+00 -8.7331656698014948e-01 3.7436295105060720e+00 0 0 0
5 1 1 -2.0922808471130572e+00 -3.2669547110699226e+00 6.9254454658087505e-01 0 0 0
3 1 1 -3.3172206825315231e+00 -2.7973010761863120e+00 9.7164104773763460e-01 0 0 0
53 1 1 -4.9839017553057827e+00 -3.7226954607429965e+00 9.4750040185727957e-01 0 0 0
54 1 1 -5.8513144903472671e+00 -4.0919190648440944e+00 7.0301659512540582e-01 0 0 0
11 1 1 -4.0695428804198963e+00 -7.6502231799689258e-01 1.3886513832197886e+00 0 0 0
92 1 1 -7.4726061386892155e+00 -4.1341678267990545e-01 2.2418892113656423e+00 0 0 0
93 1 1 -7.2334817048431432e+00 -1.1503018024847385e+00 1.6890800551652509e+00 0 0 0
69 1 1 -4.3610068880812802e+00 -3.9173921172606702e-01 4.4115942335301863e+00 0 0 0
50 1 1 -4.3032015495538740e+00 -2.2180984456913571e+00 2.3568107154061765e-01 0 0 0
71 1 1 -3.5593380602263749e+00 -6.2549158130868449e-02 3.2847304233253602e+00 0 0 0
4 1 1 -2.9901192065557400e+00 -3.6754408706081798e+00 7.7657914657744120e-01 0 0 0
40 1 1 -6.0917313063443252e+00 5.2692539203258826e-01 -4.1910199664589900e+00 0 0 0
44 1 1 -4.4724215794758573e+00 1.0898731427702266e+00 -2.5192780784170057e+00 0 0 0
45 1 1 -4.6717507632641198e+00 1.1415846588946998e+00 -1.5677312701785990e+00 0 0 0
36 1 1 -7.4026601277313286e+00 2.8680062350097306e+00 -2.4046861129517256e+00 0 0 0
37 1 1 -6.8365118567427619e+00 2.3913982387637693e+00 -2.9396824503249581e+00 0 0 0
84 1 1 -3.9090389905110885e+00 3.5382484591927521e+00 -8.5871645324575763e-01 0 0 0
87 1 1 -5.0496672285656379e+00 1.8355697025993434e+00 -1.3484489294839960e-01 0 0 0
35 1 1 -7.0512584826158022e+00 3.8738558274535051e+00 -2.1549095277919190e+00 0 0 0
33 1 1 -5.4558999971845683e+00 3.0814521836167281e+00 -2.8091172573405778e+00 0 0 0
34 1 1 -6.3128541143212340e+00 3.4974780503090899e+00 -2.7182210232868433e+00 0 0 0
31 1 1 -5.3395817840022506e+00 3.1583856324361128e+00 -1.3913938998982611e+00 0 0 0
32 1 1 -5.2762204144951079e+00 2.5109259055639490e+00 -2.0839530157868507e+00 0 0 0
46 1 1 -4.4361549719765154e+00 2.8441888522188380e-01 -1.2432999279127881e+00 0 0 0
39 1 1 -5.9145148164441457e+00 1.3274312148610123e+00 -3.7016224052897142e+00 0 0 0
38 1 1 -6.3574009711502928e+00 2.1786769575074514e+00 -3.8436144765702891e+00 0 0 0
43 1 1 -4.2951745135722277e+00 2.7792474061259093e-01 -3.1988104845438339e+00 0 0 0
83 1 1 -3.0816090556255920e+00 3.9163864320330251e+00 -7.3537385288221147e-01 0 0 0
85 1 1 -4.4768714247406267e+00 2.9220376930815117e+00 -3.7644645815875583e-01 0 0 0
30 1 1 -5.9832121996568137e+00 3.8486846705714117e+00 -1.3634633231845334e+00 0 0 0
29 1 1 -6.3652556901079898e+00 3.5173799481826586e+00 -5.5059574022466107e-01 0 0 0
86 1 1 -4.6573389696954886e+00 2.1974163899921373e+00 -9.6718433222338884e-01 0 0 0
41 1 1 -5.2398653403945987e+00 1.1949162919025262e-01 -4.2277026705421283e+00 0 0 0
42 1 1 -5.2237156281662669e+00 4.8068396609457498e-02 -3.2570615292421685e+00 0 0 0
75 1 1 -5.4715538794384297e+00 2.8146408380507655e+00 2.5989776512991112e+00 0 0 0
78 1 1 -3.6923897864178814e+00 4.7126657889432151e+00 3.0082968138631614e+00 0 0 0
28 1 1 -6.2132408673271824e+00 4.0636954057957553e+00 2.4982836250947310e-01 0 0 0
80 1 1 -2.9842523678272581e+00 4.9762337162876396e+00 1.6917205113226945e+00 0 0 0
19 1 1 -5.5716222858960727e+00 2.7234202863595929e+00 4.9200608184875296e+00 0 0 0
27 1 1 -5.2842791323601466e+00 4.2090492922147345e+00 5.2539786170441172e-01 0 0 0
79 1 1 -3.0036966194549026e+00 5.3573744657097890e+00 2.5860791161310832e+00 0 0 0
89 1 1 -6.1430442863578696e+00 1.2652511637590893e+00 8.6999543080247466e-01 0 0 0
24 1 1 -4.5244938048453935e+00 2.9188590834963692e+00 1.7027051015373509e+00 0 0 0
88 1 1 -5.2300840234979029e+00 1.1708263519164794e+00 5.7706628286741324e-01 0 0 0
22 1 1 -4.0986921317480016e+00 2.5368752479869294e+00 3.2570572327043714e+00 0 0 0
77 1 1 -4.2495687942757598e+00 3.9646124911542229e+00 2.9906758748520010e+00 0 0 0
76 1 1 -4.8960402151826159e+00 3.2403635334776970e+00 3.2688372161684884e+00 0 0 0
90 1 1 -6.8274206874149295e+00 5.0311282248250511e-01 8.0226965848957466e-01 0 0 0
17 1 1 -5.7263356812934783e+00 1.8156885010019250e+00 4.0904620979525674e+00 0 0 0
16 1 1 -6.2079045834258730e+00 1.0243481906799834e+00 3.8654516217651236e+00 0 0 0
21 1 1 -4.5695534352338552e+00 2.0434294320737432e+00 3.9250561523922900e+00 0 0 0
26 1 1 -5.5475359794415864e+00 3.5040138422547527e+00 1.1357586848050241e+00 0 0 0
25 1 1 -4.7817047957931100e+00 3.0777559569678417e+00 8.0982495401603660e-01 0 0 0
23 1 1 -4.0621282359638480e+00 3.1028858982924477e+00 2.4533872479497250e+00 0 0 0
81 1 1 -2.9042161770684256e+00 5.0422896440963569e+00 7.5665292229330916e-01 0 0 0
18 1 1 -6.3223204663427115e+00 2.1269617222401282e+00 4.8270169783126144e+00 0 0 0
82 1 1 -3.0442562344111486e+00 4.2912094143609272e+00 1.4513429185096846e-01 0 0 0
74 1 1 -4.9601377932153312e+00 2.0135811355301132e+00 2.7768069404069213e+00 0 0 0
20 1 1 -4.8382587292711596e+00 2.8323891863961954e+00 4.3128944099729640e+00 0 0 0
91 1 1 -7.4276712361154775e+00 3.0139802818708072e-01 1.5319873518153535e+00 0 0 0
73 1 1 -4.2199557920270196e+00 1.4909726487716939e+00 2.7623939696381030e+00 0 0 0
72 1 1 -3.6009719062473766e+00 7.8382752485864293e-01 2.8749380127410622e+00 0 0 0
14 1 1 -5.2685397326560892e+00 6.9187245214140980e-01 2.1809920138673187e+00 0 0 0
15 1 1 -5.7623105899753986e+00 6.8912621797665952e-01 3.0681733249484182e+00 0 0 0
13 1 1 -5.3976662283801478e+00 4.1357508665331957e-02 1.4736531440675920e+00 0 0 0

Velocities

57 -1.1653651906463449e+00 -2.3590378557742342e-01 -2.4812439470596714e-01
61 -1.3159372675376819e+00 2.2824306355572732e+00 2.3051081789090291e-01
58 1.3897704242880171e+00 1.1686338885050103e+00 1.2780153431617121e+00
59 1.3854747496535227e+00 -1.6112152160065477e-01 3.7064016202864525e-01
62 1.1543188397180257e-01 4.6515937728580753e-01 5.8449667047049192e-01
100 8.0067413608623750e-01 -5.7769445207497272e-01 -1.5465150281452417e-01
56 -8.3766704201869824e-01 1.1645318098970139e-01 9.0939377830871948e-01
1 -1.7330633521003227e+00 7.7860324287325333e-01 -3.4946367664943778e-01
98 1.3284912343992512e+00 3.1735654591869693e+00 4.5107730130510537e-01
48 1.1059429546868358e+00 3.9274820362852969e-01 -6.9151452877304043e-01
99 -1.5088675047763569e+00 8.6734104635943421e-01 -8.2414446976196931e-01
51 -4.8393619798740661e-01 -1.3998763028142056e+00 -6.5516221079375381e-01
49 -1.0884107957571947e+00 -2.4971045578088175e-01 9.8678206576910421e-01
97 -3.3971646190713456e-01 -1.4772702867435596e+00 5.1976982246281866e-01
60 4.2692984235529674e-01 -1.0183406290861619e+00 9.1751385739454766e-02
96 1.0005465681199757e+00 -3.1773056710207104e-01 -1.3672991576478466e+00
47 -1.3190503555211228e+00 -3.0370280752606038e-01 -1.3362071375248961e+00
55 1.8295601859124347e-01 1.1034806507320316e+00 -1.7714700889692949e+00
63 1.8780395385445087e-01 -1.2260043702418186e+00 8.1725859747268659e-01
8 -7.3251959431411295e-01 1.2172786779093028e+00 2.6989770490234819e+00
7 -5.7156226778783537e-01 -2.1998134208613740e-02 9.3064972605127827e-01
52 2.3374033662576607e-01 -9.7438121795679478e-01 -6.5011724273616872e-03
70 -9.0892103524456891e-01 5.8192406315008091e-02 4.5166190684345120e-01
67 -2.6077062734103323e-01 -9.2323742987410862e-01 1.6826927119392801e-01
94 -8.2835736230118928e-01 1.0896423382814999e+00 1.1293504421383200e+00
65 5.5171873741274624e-01 8.4256969489664291e-01 -7.7380563904759420e-02
9 -2.1399718661625416e-01 1.2321967655318815e+00 -1.5825278642606594e-01
64 -7.5565795399210167e-01 -4.8780015770580720e-02 -1.0311036525076598e+00
10 6.0815034099106835e-01 -2.9438548178267820e-01 8.6441528726294781e-01
66 -1.4659301257661803e+00 1.6583933177024424e+00 -9.8852378588225687e-01
2 9.0262783137466163e-01 7.7086900544267467e-01 -7.7855856556686454e-01
95 -4.2324616769349388e-01 -1.7608670422434549e+00 -2.4738619423928174e+00
6 5.6329944418882738e-01 -9.6963483211404689e-03 2.2361797086298588e-01
12 -3.5000402664686382e-02 -1.8318230721039036e-01 1.6359648968883076e+00
68 1.8969701021333067e+00 -1.2256912314173911e+00 5.4997657335008765e-01
5 -3.1312205763319928e-01 1.9279385781223861e+00 -3.7736377706195162e-01
3 -1.9571918972564064e+00 1.7314962987810656e-01 4.4288466229361854e-03
53 -1.8873995279403746e+00 -1.5687232707589946e-01 -4.4304787265760220e-01
54 2.5068670175925734e-01 -7.1141145029876840e-01 6.1796397277265713e-01
11 -4.1076462354702392e-01 5.0892242142322841e-01 -2.8624222058769333e-01
92 -1.7210127178173726e+00 1.6213400085117541e-02 2.5174673823393190e-01
93 1.5141706594503384e+00 2.2427709943165092e-02 1.5681923104124245e+00
69 5.9314506589579397e-01 8.1455509726106279e-01 -1.5793684630412674e+00
50 2.0649387282233227e+00 -3.1161298512676217e-01 2.2107572636126118e+00
71 -1.7686478049555221e+00 -7.9273149946818378e-01 4.1469328855474008e-01
4 -1.3314808375600573e+00 -2.5033635280339164e-02 -4.0215121717737135e-01
40 -6.5042443986074916e-01 -8.1941986108742826e-01 6.6180481686701520e-01
44 -9.8030280108401469e-01 1.8517940883739969e-01 1.1249263363816773e+00
45 -5.7783868049423159e-01 -1.1147171600534794e-01 4.5483249511563711e-02
36 -2.9312132275900221e-01 7.8495892972558656e-01 4.9002317057313510e-01
37 -9.6888912396779825e-01 1.9528689792081215e+00 6.9380974024946673e-01
84 4.2469435326042404e-01 -1.3883945673896106e-01 -5.8290879199468482e-01
87 1.0430521518078156e-01 -1.2953454144341583e+00 -2.3227580058790012e-02
35 1.7096538292288996e+00 -3.0143188586203490e-01 1.8082114376671665e-01
33 -6.6721968024026890e-01 -1.0392734229100717e-01 6.5393661265386616e-01
34 -1.7509312968774196e+00 -1.1109281728663962e+00 -1.0963068736026218e+00
31 2.5199827793901342e-01 2.2642546890895776e-01 -8.1989488529886523e-01
32 1.7109333370750390e+00 2.0198812125019694e-01 9.7372601425403704e-01
46 7.1507248756429032e-01 -3.1107734039134343e+00 -8.8564907101355436e-02
39 1.5058688828341473e+00 1.7585830889000027e+00 6.7823720242127838e-01
38 1.3978272914431072e-01 1.1156181882802803e+00 7.6752075492244232e-01
43 2.0411026798500748e-01 -6.5279492930668725e-01 -9.4088635860649000e-02
83 -3.2649726794627132e-03 -2.9470105652453304e-01 -8.2302129428320636e-01
85 -1.8537157691375654e+00 1.6068916856259317e+00 1.4201736275184332e-01
30 1.4001022355254797e+00 3.4222591650509332e-01 -6.3363013060606754e-01
29 -1.3644697210607653e+00 1.1306473367094272e+00 -8.5504495248734202e-01
86 -1.1109090152279371e+00 -1.3890161621627501e+00 8.1319607712398045e-01
41 -8.5363686789024917e-01 1.2453195983512286e+00 1.4655724107582240e+00
42 1.4660078428499308e+00 5.6232709149475568e-01 -5.0223824982620335e-01
75 1.0212066374103259e+00 -1.2178438522689694e+00 6.4304422045174536e-01
78 -6.5309569166852155e-01 2.9762840477254188e-01 -4.1172642127501852e-02
28 -8.8880850916706144e-01 -1.6440202662992811e+00 6.6196731843551904e-01
80 -8.7237794610162478e-01 -1.2298635722273099e+00 4.7818828496908705e-01
19 3.8550012656059723e-01 8.0448980249767621e-01 5.7394969360150788e-02
27 2.8226200057284229e-01 -1.6516700727772429e+00 -1.2683815581584938e+00
79 -3.4887918468928603e-01 4.7040657911363115e-01 -1.0385119482611728e-01
89 8.4964801601433049e-01 6.6223233789702540e-01 4.4829965593472562e-02
24 1.7297884246720105e+00 -1.4133044021001924e+00 3.3807069163101588e-01
88 -1.1079459640365414e+00 -3.6623605801459358e-01 1.7281377310902843e+00
22 7.0606437070340278e-01 -6.4232646003982452e-01 -2.1029431469001532e+00
77 -1.3940569127202065e+00 -4.1348426780847769e-01 -3.2920910543635790e-01
76 -1.9227937983671446e+00 -8.4158065945211546e-01 8.1943807429181503e-01
90 -2.8365113720665402e-01 -3.8540165455158643e-01 -2.4145895021323729e+00
17 1.3188980819503342e+00 7.2847815912581659e-01 -7.4844113224449271e-01
16 1.1887375003864131e-01 1.7576758318514596e+00 -2.2033381404117605e+00
21 -1.7120728438465729e+00 -1.4165194695526586e+00 -8.3072774774330693e-01
26 1.1939003649927984e+00 -3.3106261714625490e-01 -3.6513390878294882e-01
25 1.0268087911663550e+00 -2.0569148480085224e+00 -2.0080062155382375e-01
23 -1.4374050784626107e+00 -4.7062006777915333e-01 -2.9904159880815540e-01
81 6.9465730478937782e-01 -6.5080062123489457e-01 1.5003015024547847e-01
18 -1.4521963225721832e+00 1.1931113348994569e+00 -4.5880048695968212e-01
82 1.0304314583148326e+00 -9.1330335170995258e-01 -1.1441721415317285e+00
74 -2.0355177789885082e-01 2.0635847979264821e-01 -2.3414989031634081e-01
20 5.9164870489000154e-02 -1.0994646656635336e+00 -2.8289540124502105e-02
91 -1.8085712844656330e+00 2.5859152527370627e-01 1.1631461954777871e-01
73 7.6859663591471922e-02 2.7765327271030010e-01 2.3395603553611569e-01
72 -4.9083635117959135e-01 -9.9379405476501259e-03 -1.1059464085244488e+00
14 4.3032348186595037e-01 1.0338919262797558e-01 5.4585295137921941e-01
15 3.7663043395786841e-02 1.3203692161093823e+00 3.0844104971096065e-01
13 2.0313701238877319e-01 1.4222952713487111e+00 -1.3750409584801157e-02

Bonds

1 1 57 58
2 1 61 62
3 1 58 59
4 1 59 60
5 1 62 63
6 1 100 1
7 1 56 57
8 1 1 2
9 1 98 99
10 1 48 49
11 1 99 100
12 1 51 52
13 1 49 50
14 1 97 98
15 1 60 61
16 1 96 97
17 1 47 48
18 1 55 56
19 1 63 64
20 1 8 9
21 1 7 8
22 1 52 53
23 1 70 71
24 1 67 68
25 1 94 95
26 1 65 66
27 1 9 10
28 1 64 65
29 1 10 11
30 1 66 67
31 1 2 3
32 1 95 96
33 1 6 7
34 1 12 13
35 1 68 69
36 1 5 6
37 1 3 4
38 1 53 54
39 1 54 55
40 1 11 12
41 1 92 93
42 1 93 94
43 1 69 70
44 1 50 51
45 1 71 72
46 1 4 5
47 1 40 41
48 1 44 45
49 1 45 46
50 1 36 37
51 1 37 38
52 1 84 85
53 1 87 88
54 1 35 36
55 1 33 34
56 1 34 35
57 1 31 32
58 1 32 33
59 1 46 47
60 1 39 40
61 1 38 39
62 1 43 44
63 1 83 84
64 1 85 86
65 1 30 31
66 1 29 30
67 1 86 87
68 1 41 42
69 1 42 43
70 1 75 76
71 1 78 79
72 1 28 29
73 1 80 81
74 1 19 20
75 1 27 28
76 1 79 80
77 1 89 90
78 1 24 25
79 1 88 89
80 1 22 23
81 1 77 78
82 1 76 77
83 1 90 91
84 1 17 18
85 1 16 17
86 1 21 22
87 1 26 27
88 1 25 26
89 1 23 24
90 1 81 82
91 1 18 19
92 1 82 83
93 1 74 75
94 1 20 21
95 1 91 92
96 1 73 74
97 1 72 73
98 1 14 15
99 1 15 16
100 1 13 14

Angles

1 1 56 57 58
2 1 60 61 62
3 1 57 58 59
4 1 58 59 60
5 1 61 62 63
6 1 99 100 1
7 1 55 56 57
8 1 100 1 2
9 1 97 98 99
10 1 47 48 49
11 1 98 99 100
12 1 50 51 52
13 1 48 49 50
14 1 96 97 98
15 1 59 60 61
16 1 95 96 97
17 1 46 47 48
18 1 54 55 56
19 1 62 63 64
20 1 7 8 9
21 1 6 7 8
22 1 51 52 53
23 1 69 70 71
24 1 66 67 68
25 1 93 94 95
26 1 64 65 66
27 1 8 9 10
28 1 63 64 65
29 1 9 10 11
30 1 65 66 67
31 1 1 2 3
32 1 94 95 96
33 1 5 6 7
34 1 11 12 13
35 1 67 68 69
36 1 4 5 6
37 1 2 3 4
38 1 52 53 54
39 1 53 54 55
40 1 10 11 12
41 1 91 92 93
42 1 92 93 94
43 1 68 69 70
44 1 49 50 51
45 1 70 71 72
46 1 3 4 5
47 1 39 40 41
48 1 43 44 45
49 1 44 45 46
50 1 35 36 37
51 1 36 37 38
52 1 83 84 85
53 1 86 87 88
54 1 34 35 36
55 1 32 33 34
56 1 33 34 35
57 1 30 31 32
58 1 31 32 33
59 1 45 46 47
60 1 38 39 40
61 1 37 38 39
62 1 42 43 44
63 1 82 83 84
64 1 84 85 86
65 1 29 30 31
66 1 28 29 30
67 1 85 86 87
68 1 40 41 42
69 1 41 42 43
70 1 74 75 76
71 1 77 78 79
72 1 27 28 29
73 1 79 80 81
74 1 18 19 20
75 1 26 27 28
76 1 78 79 80
77 1 88 89 90
78 1 23 24 25
79 1 87 88 89
80 1 21 22 23
81 1 76 77 78
82 1 75 76 77
83 1 89 90 91
84 1 16 17 18
85 1 15 16 17
86 1 20 21 22
87 1 25 26 27
88 1 24 25 26
89 1 22 23 24
90 1 80 81 82
91 1 17 18 19
92 1 81 82 83
93 1 73 74 75
94 1 19 20 21
95 1 90 91 92
96 1 72 73 74
97 1 71 72 73
98 1 13 14 15
99 1 14 15 16
100 1 12 13 14
