LAMMPS data file via write_data, version 12 Dec 2018, timestep = 10000

100 atoms
1 atom types
100 bonds
1 bond types
100 angles
1 angle types

-2.7582539767033801e+01 2.7582539767033801e+01 xlo xhi
-2.7582539767033801e+01 2.7582539767033801e+01 ylo yhi
-2.7582539767033801e+01 2.7582539767033801e+01 zlo zhi

Masses

1 1

Atoms # angle

62 1 1 -2.3823530753441580e-01 -7.6366671697795176e+00 6.3293200870966935e+00 0 0 0
57 1 1 -4.5021970208461670e-01 -1.0546626835472443e+01 7.6434309869640344e+00 0 0 0
66 1 1 -8.2492493496561181e-01 -8.4677869125919099e+00 7.3757823425711999e+00 0 0 0
65 1 1 -1.4779641940163490e+00 -8.0528937566580900e+00 6.8047706146311651e+00 0 0 0
64 1 1 -9.9492220477772098e-01 -7.2907402769800882e+00 7.1457470173607129e+00 0 0 0
63 1 1 -4.7893536422196133e-02 -7.4510513164777183e+00 7.2537133957032491e+00 0 0 0
55 1 1 -1.0841107625536899e+00 -1.1452192173015987e+01 7.8919487008028550e+00 0 0 0
56 1 1 -1.4091443092904724e-01 -1.1455458278588836e+01 7.6826436099902908e+00 0 0 0
54 1 1 -6.6991610610362740e-01 -1.1033674711107970e+01 8.6536906646716734e+00 0 0 0
35 1 1 -5.8011908186184629e+00 -8.7008549870012537e+00 7.6831857916371380e+00 0 0 0
34 1 1 -6.5822533851569842e+00 -8.4673899783107363e+00 8.1996075977723013e+00 0 0 0
37 1 1 -5.0701745612572919e+00 -8.5230326576306084e+00 8.5197404138550947e+00 0 0 0
67 1 1 -1.4611872601652884e+00 -8.1563925422163717e+00 8.0250025538203715e+00 0 0 0
36 1 1 -5.5868748371031405e+00 -7.8527622353639632e+00 8.0706651528306619e+00 0 0 0
68 1 1 -7.2938032783325546e-01 -7.5697101101390265e+00 8.2033856890754002e+00 0 0 0
70 1 1 -1.4045501199586850e+00 -6.8917193519431104e+00 8.7860246278988825e+00 0 0 0
69 1 1 -7.9428803673835413e-01 -6.6181111675400635e+00 8.0982288028341927e+00 0 0 0
51 1 1 -1.9936754157101533e+00 -1.1438160026197469e+01 9.9409203728255982e+00 0 0 0
28 1 1 -5.1928736203287187e+00 -1.0341333237902953e+01 9.6405008692764049e+00 0 0 0
53 1 1 -1.5619546862401525e+00 -1.1268045000450766e+01 8.8962554280719015e+00 0 0 0
50 1 1 -1.6997945809415400e+00 -1.0539423481917577e+01 9.7683583583356288e+00 0 0 0
52 1 1 -1.0612913036186473e+00 -1.1450396075305095e+01 9.6852453869158026e+00 0 0 0
29 1 1 -4.9546867480366377e+00 -9.6625480684898299e+00 9.0064998480926732e+00 0 0 0
45 1 1 -3.2507789421714879e+00 -9.3915993899318426e+00 9.7583475781726232e+00 0 0 0
47 1 1 -2.2573635585364378e+00 -9.6617094117629687e+00 9.2923067811332274e+00 0 0 0
49 1 1 -1.3011510761516449e+00 -1.0155407486227196e+01 8.9896131500057823e+00 0 0 0
48 1 1 -1.3732388528739108e+00 -9.4447424706368981e+00 9.6070493033991244e+00 0 0 0
31 1 1 -5.7832959183104160e+00 -8.5499564085123705e+00 9.4823903564069791e+00 0 0 0
30 1 1 -5.2016243746839059e+00 -9.2293427517201998e+00 9.8351585543848934e+00 0 0 0
38 1 1 -4.4112933475455041e+00 -8.6904840075265923e+00 9.1981901468793250e+00 0 0 0
42 1 1 -3.3806997322267907e+00 -8.2826611648517598e+00 9.4155587513804253e+00 0 0 0
46 1 1 -2.4618062533890868e+00 -8.8465650546523396e+00 9.7504128895198097e+00 0 0 0
33 1 1 -6.7757638462918699e+00 -8.0748022002589952e+00 9.0601426349095000e+00 0 0 0
32 1 1 -5.9045285603291822e+00 -7.6637621674984473e+00 9.1297816613138121e+00 0 0 0
40 1 1 -4.7756554461300702e+00 -7.6105870113203782e+00 9.1897187412196608e+00 0 0 0
39 1 1 -4.3488978494821993e+00 -8.0562181566232454e+00 9.9186675277625032e+00 0 0 0
41 1 1 -3.8767991663373920e+00 -7.7048916145454562e+00 8.8397813592767012e+00 0 0 0
75 1 1 -2.2782280168100724e+00 -7.4398811920915202e+00 9.3282757745666149e+00 0 0 0
71 1 1 -9.5052212973703087e-01 -7.3404020585329226e+00 9.5003045988519119e+00 0 0 0
72 1 1 -1.5371455118429860e+00 -6.6812550394132684e+00 9.8895088521992651e+00 0 0 0
27 1 1 -4.4969928164635977e+00 -1.0317201735888748e+01 1.0297883613470923e+01 0 0 0
91 1 1 -5.4672850739969758e-01 -1.0911026393787907e+01 1.1001536773171203e+01 0 0 0
44 1 1 -2.9710473821150774e+00 -9.2852143967811003e+00 1.0670445642717569e+01 0 0 0
43 1 1 -3.3104518739833004e+00 -8.4399604326460285e+00 1.0356676549179690e+01 0 0 0
77 1 1 -9.0032292515264123e-01 -8.3147211375487124e+00 1.0112781138277542e+01 0 0 0
74 1 1 -2.9444087334754943e+00 -7.4414710611213364e+00 1.0021048962702796e+01 0 0 0
73 1 1 -2.2125672904827951e+00 -7.0254772762323361e+00 1.0491147846372243e+01 0 0 0
76 1 1 -1.7858291434202407e+00 -7.9463109736964803e+00 9.9760688883413806e+00 0 0 0
78 1 1 -1.0576182221065689e+00 -7.6402615534049998e+00 1.0775996434403226e+01 0 0 0
79 1 1 -1.2541061081722693e+00 -6.7372995416008958e+00 1.1033278349600089e+01 0 0 0
80 1 1 -4.2767752538478943e-01 -6.4135344429449646e+00 1.0664043387606496e+01 0 0 0
20 1 1 -5.1532989828265992e+00 -1.2933616286722147e+01 1.1700309229087395e+01 0 0 0
25 1 1 -4.6516450695425027e+00 -1.1486757235762425e+01 1.1203513350064176e+01 0 0 0
24 1 1 -4.3615450662330923e+00 -1.1919089241993172e+01 1.2020408652113927e+01 0 0 0
99 1 1 -2.4065727636859893e+00 -1.1751797322171583e+01 1.1779284646748936e+01 0 0 0
98 1 1 -3.2822616609198079e+00 -1.2134485149002684e+01 1.1813833323549694e+01 0 0 0
26 1 1 -4.8457595353378320e+00 -1.0548916284001189e+01 1.1158926499139435e+01 0 0 0
97 1 1 -3.3660130060606406e+00 -1.1228332518780217e+01 1.2096496968181521e+01 0 0 0
96 1 1 -2.7648699327114357e+00 -1.0570914869783493e+01 1.1720975847611145e+01 0 0 0
93 1 1 -1.5038115334033242e+00 -1.0487108585110146e+01 1.1889927012074436e+01 0 0 0
92 1 1 -8.0863785271666200e-01 -1.1149729078722007e+01 1.1900879793369743e+01 0 0 0
84 1 1 -3.6124210919372929e-01 -8.7877918215210098e+00 1.1393661294665339e+01 0 0 0
81 1 1 -1.9976622498211971e-01 -6.9410156573426418e+00 1.1436596081299442e+01 0 0 0
14 1 1 -5.2177563610700961e+00 -1.4623897932682164e+01 1.2817010223471174e+01 0 0 0
18 1 1 -5.1968673757098678e+00 -1.3484622792346226e+01 1.3072112535393604e+01 0 0 0
13 1 1 -4.7408241820877421e+00 -1.4047757189364264e+01 1.2208919089802894e+01 0 0 0
19 1 1 -5.7000405634150955e+00 -1.3472506207961782e+01 1.2257652077881291e+01 0 0 0
11 1 1 -4.3954478875112519e+00 -1.2660813147784081e+01 1.3214434747541098e+01 0 0 0
12 1 1 -4.3072345076683067e+00 -1.3229512677412760e+01 1.2435026951307508e+01 0 0 0
21 1 1 -5.2996645874997697e+00 -1.2361113824123738e+01 1.2459099014769338e+01 0 0 0
22 1 1 -5.3827961345133186e+00 -1.1418017426748531e+01 1.2258756009530686e+01 0 0 0
1 1 1 -3.4463745555295091e+00 -1.2070230124059954e+01 1.3044789381401218e+01 0 0 0
100 1 1 -2.5495832502290159e+00 -1.1889835375537331e+01 1.2720166839264660e+01 0 0 0
23 1 1 -4.5161204306069136e+00 -1.1000816075755051e+01 1.2269256910763572e+01 0 0 0
3 1 1 -3.9937520504729060e+00 -1.0311815261940708e+01 1.2984496128103595e+01 0 0 0
95 1 1 -2.8580338321361785e+00 -1.0358563227562161e+01 1.2653794342876779e+01 0 0 0
94 1 1 -2.0619984372724511e+00 -1.0891193431317822e+01 1.2561596940622554e+01 0 0 0
5 1 1 -5.6538016579477324e+00 -1.0201095726080867e+01 1.2976063363157845e+01 0 0 0
4 1 1 -4.7966514242478846e+00 -9.9370474712523098e+00 1.2615546335140982e+01 0 0 0
15 1 1 -5.3248343670351810e+00 -1.4397055695285067e+01 1.3750398662110490e+01 0 0 0
16 1 1 -4.6749125814125305e+00 -1.3852003127003433e+01 1.4209959621774583e+01 0 0 0
17 1 1 -4.3939809033529684e+00 -1.3978055278699218e+01 1.3297695655018272e+01 0 0 0
10 1 1 -4.7560015678778944e+00 -1.2660722684955985e+01 1.4102255329914520e+01 0 0 0
7 1 1 -4.5900097984140276e+00 -1.1396074285380188e+01 1.3778175764978750e+01 0 0 0
9 1 1 -5.4887860195301394e+00 -1.2043339352118455e+01 1.4084762982855676e+01 0 0 0
6 1 1 -5.0032628350017720e+00 -1.0545210097867873e+01 1.3601531437744942e+01 0 0 0
2 1 1 -3.5903034043593647e+00 -1.1143169474206923e+01 1.3253848139468078e+01 0 0 0
8 1 1 -4.8677284965449585e+00 -1.1597754081231527e+01 1.4676418252801765e+01 0 0 0
60 1 1 -4.0824026563391633e-03 -9.4266389416125431e+00 6.5991036543457327e+00 0 0 0
83 1 1 2.5852777056042558e-01 -8.0697136930487368e+00 1.1225958367148195e+01 0 0 0
61 1 1 1.4199543343864551e-01 -8.5167081931715316e+00 6.3557077847055297e+00 0 0 0
59 1 1 2.0992337967066227e-01 -9.5290778717032580e+00 7.5311253859228664e+00 0 0 0
58 1 1 4.0200964768582137e-01 -1.0322959734499252e+01 8.0240081590338193e+00 0 0 0
90 1 1 2.6722941381405391e-01 -1.0777242805033342e+01 1.0512189308635312e+01 0 0 0
85 1 1 4.5605278442073752e-02 -9.0354396777168358e+00 1.0561016603690071e+01 0 0 0
86 1 1 9.5797769359808194e-01 -8.9275810558824187e+00 1.0834432500927818e+01 0 0 0
82 1 1 3.4136393720620894e-01 -7.2566912268004220e+00 1.0716038620301505e+01 0 0 0
89 1 1 1.4336407410794885e-01 -1.0016728091098585e+01 1.1084340089283748e+01 0 0 0
88 1 1 1.0526681489945409e+00 -9.9254331150040276e+00 1.1372376492467057e+01 0 0 0
87 1 1 6.8326946182464121e-01 -9.1143646579392357e+00 1.1734677352276437e+01 0 0 0

Velocities

62 4.7721555857665902e-02 7.8202481575637514e-02 1.6120636865077132e-02
57 -9.7822825857469833e-02 1.7655888185548491e-02 -3.0789211000443760e-02
66 -7.5766074688478263e-02 4.8570979045412882e-02 4.4477642769606224e-02
65 -5.2256961858671631e-02 -8.3975289042011347e-02 3.7454833683956662e-02
64 -6.8227256522234159e-02 7.2439469346703075e-02 -1.2522769006964680e-03
63 2.5654984796324751e-02 -8.4665322096526455e-02 5.0590123234917274e-02
55 6.9097635815055694e-02 3.2586336667413174e-02 5.4265878264814327e-02
56 6.3194283192375050e-02 -6.6157337964028784e-02 -4.1709295435284156e-02
54 -3.7576973248292934e-02 8.1981163506957520e-03 -9.5101315259660882e-02
35 7.6666128276656684e-02 4.1495835907418920e-02 -3.5915093123477133e-02
34 -6.0830413610497618e-02 -5.6655330056306408e-02 6.3326335055697999e-02
37 4.2682682523156976e-02 5.9067405623999716e-02 5.8767161967495873e-02
67 -7.6964017514281891e-02 5.7291485129525518e-02 2.9045856057391083e-02
36 6.2001950699350661e-02 -1.5292225293803828e-02 7.2078745603937747e-02
68 -5.4080922420645022e-02 -8.0245163440208170e-02 4.2282478349982298e-02
70 4.9435844195353310e-02 -3.3497316821078107e-02 -8.0444493608334763e-02
69 7.5138021089900434e-02 -3.1066977426255173e-02 5.2432982700792233e-02
51 7.0966296296971598e-02 2.7038013453326050e-02 5.5206937670874749e-02
28 4.5736650171787831e-02 2.7601785091304822e-02 7.8323561092572505e-02
53 -2.1402134880924895e-02 4.5313079347991905e-02 -8.6357199673072413e-02
50 3.6194366777050936e-02 -5.1494197287737242e-02 7.6885183346509900e-02
52 6.0264452837984372e-02 6.7555996277172181e-02 2.0639760409428623e-02
29 5.5959931030775831e-02 -5.5252826650589365e-02 -6.2865496903681761e-02
45 1.3251041800588802e-02 7.0304279999672245e-02 6.1766291512479796e-02
47 -6.0720575157229291e-02 -5.3015929791624165e-02 6.6158297743736730e-02
49 -2.6888585248543428e-03 9.2114686048915942e-02 -2.5364513369830428e-02
48 -1.0480041228763493e-01 -5.0723441294862961e-03 3.4373090713234866e-03
31 1.7570171288572120e-02 8.1401190904506204e-02 4.3592838686927697e-02
30 5.3728740740234170e-02 -2.3884078266865304e-02 -8.0259932108969922e-02
38 -7.1876564175875235e-02 6.8949015321944140e-02 -8.7801396067705394e-03
42 -7.1906612110958737e-02 -7.2032525144251444e-02 -3.3379475337884122e-02
46 7.7819571646998126e-02 -6.1111567676014576e-02 -2.9260735746425965e-03
33 2.8873443548728100e-02 7.8925860426683522e-02 4.1145215036557589e-02
32 -3.0976528363762915e-02 -8.6846904974144212e-02 -5.2667782256843231e-02
40 5.5747861544115575e-02 4.9354413198783705e-02 -5.9537614809795275e-02
39 -6.3311734087075883e-02 -7.5901030262166130e-02 3.7988298663303707e-02
41 -8.4975913625221278e-02 3.2719617880665769e-02 -4.8097503894159913e-02
75 3.8261714039218950e-02 5.1812318160107090e-02 -7.1581466996159041e-02
71 5.2076333021067941e-02 7.7163867083227242e-02 -3.7156313311703755e-03
72 4.8929510063975522e-02 5.5379836454714892e-02 -6.0306879870274215e-02
27 1.4095755064230671e-02 -8.7700386406732028e-02 -5.4365634128966313e-02
91 3.0450654065037924e-02 4.4570553637341484e-02 7.7831600302443113e-02
44 6.7011225683748241e-03 2.7011996259641388e-02 9.2526518476645309e-02
43 2.6405301092376775e-02 8.4563060760922251e-02 3.0151072633097169e-02
77 -1.2784449370106397e-02 -9.7108108558043166e-02 -3.9571422699435914e-02
74 -1.0401461291808130e-01 8.4642121262042090e-03 -9.8752991288812209e-04
73 -5.9997496670012807e-02 -5.0543088099167986e-02 6.8423453153485012e-02
76 3.1464574005992466e-02 -3.0947511718668153e-02 8.7944452724216540e-02
78 5.5851635763664989e-02 3.6032689917347871e-02 6.6503277203464425e-02
79 3.0580073905574195e-02 -8.2794288415885292e-02 5.0294311954669990e-02
80 -9.7108351425810660e-02 -3.6454886616804079e-02 2.1091393376200040e-02
20 6.3469165331941441e-02 -7.0357179967289962e-02 3.0856566996762803e-02
25 -3.2670963871812966e-02 -4.8240589141184599e-02 -8.7282824007056420e-02
24 2.0373183601621870e-02 6.4845148632662580e-02 -6.8480801603886463e-02
99 -1.6587460427393251e-02 -6.3892731649741200e-02 -8.1456477147211173e-02
98 -2.8560282357350954e-02 8.8293872922093911e-02 -2.8759877819112038e-02
26 -7.2954740683189107e-02 -4.4347079299874942e-02 6.0310827301430947e-02
97 5.2926377077978606e-02 1.4422580126564999e-02 -8.0734834077021034e-02
96 7.1340942562905407e-02 -6.2800161088787956e-02 -3.0482867099350202e-02
93 -8.6940703197836033e-02 5.0908407542333861e-02 1.0761678600513854e-02
92 3.8227086151746303e-02 7.0869983868118810e-02 -5.0353409823004062e-02
84 -8.4314564639301537e-02 -5.2217684240200256e-02 -3.9776869078000217e-02
81 -7.0398185681294509e-02 -3.8591734395153496e-02 6.6190130043459319e-02
14 5.6368160612248870e-02 -5.8006761759875528e-02 5.7067104316836356e-02
18 -8.4534383752379691e-02 2.3279016816499139e-02 5.2010168847758220e-02
13 6.2948882912300066e-02 -6.9959480718155317e-02 3.2700491759921187e-02
19 8.1696364758106557e-02 -2.1227805708103967e-02 -4.8758393807248966e-02
11 -3.9777474175688644e-02 8.6127518341554160e-02 2.0542663588246145e-02
12 4.4219654450625465e-02 5.5131748305949545e-02 6.1523691880408474e-02
21 -4.2008974455852832e-02 -9.4296393080336396e-02 2.3905134453237418e-02
22 -3.8722821587621067e-02 6.5160307824445388e-02 6.1256958377379739e-02
1 4.7103433023110659e-02 -8.6358914982801141e-02 -2.7377471302945613e-02
100 -4.9371058990040684e-02 5.5418408369083613e-02 -6.7666950001251974e-02
23 7.6967748078399442e-02 -6.1911153178768677e-03 -5.8885134742953066e-02
3 7.5682828823114306e-02 4.9908249466249860e-02 2.0652558855489993e-02
95 -8.1340396453032260e-02 5.7082655244028890e-02 -1.9100733441659537e-02
94 -3.4978352254838106e-02 -6.7916650790219454e-02 -7.3160989635012830e-02
5 2.2535376912256985e-02 -9.5690378081544972e-02 -3.3382174872099178e-02
4 1.7454077381115193e-02 8.0413680198361120e-02 4.5491134939718431e-02
15 5.0595554317999787e-02 5.6069837646605808e-02 -5.7999987712409919e-02
16 3.3181603232481184e-02 -8.3642807778971096e-02 -5.0073552688627919e-02
17 7.5846352179408744e-02 3.5791503117609536e-02 4.1094669188166538e-02
10 -8.0485389215663353e-02 -2.8445423203658775e-02 5.9644361044715391e-02
7 4.3532950388038193e-02 2.3344367372526546e-02 -8.4271378451821297e-02
9 -1.3648292705965531e-03 9.3704530271959338e-02 1.4318106174780597e-02
6 -6.0909481845450884e-02 -4.2594318588916533e-02 7.2319073347631976e-02
2 -5.2720402063065677e-03 -9.3709735841721060e-03 9.8397494813513980e-02
8 -5.5989483301405775e-02 -5.8773711638297643e-02 -6.8568537541025196e-02
60 -9.9283758006699571e-02 -6.8746403514770502e-03 3.1545857305420588e-02
83 -1.2320284316034132e-02 7.5155291535396055e-03 -1.0044620789236690e-01
61 5.2272263661849810e-02 6.0779512691232523e-02 -5.0551346442552013e-02
59 3.2069449217944383e-03 3.1834217260396952e-02 -9.4129285733623683e-02
58 -3.9844967520254120e-02 3.2766372363248364e-02 -8.7273846950151959e-02
90 4.2155144016628204e-02 4.6066499331579157e-02 7.0458783777082132e-02
85 8.1694232144155901e-02 -3.4010550456247686e-02 3.9167375963929600e-02
86 -3.4039620193324738e-02 -1.5941686714329262e-02 -9.6541168605066174e-02
82 1.2875855288111426e-02 -4.8755968597593125e-02 -8.9630761608903667e-02
89 3.9263330868931245e-02 -9.1067285742941109e-02 -2.6706684752853822e-02
88 1.7106778677691538e-02 7.2246712918805106e-02 5.8093947003330440e-02
87 -8.2806673372235226e-02 -4.2478466952128452e-02 4.8767322448317614e-02

Bonds

1 1 62 63
2 1 57 58
3 1 66 67
4 1 65 66
5 1 64 65
6 1 63 64
7 1 55 56
8 1 56 57
9 1 54 55
10 1 35 36
11 1 34 35
12 1 37 38
13 1 67 68
14 1 36 37
15 1 68 69
16 1 70 71
17 1 69 70
18 1 51 52
19 1 28 29
20 1 53 54
21 1 50 51
22 1 52 53
23 1 29 30
24 1 45 46
25 1 47 48
26 1 49 50
27 1 48 49
28 1 31 32
29 1 30 31
30 1 38 39
31 1 42 43
32 1 46 47
33 1 33 34
34 1 32 33
35 1 40 41
36 1 39 40
37 1 41 42
38 1 75 76
39 1 71 72
40 1 72 73
41 1 27 28
42 1 91 92
43 1 44 45
44 1 43 44
45 1 77 78
46 1 74 75
47 1 73 74
48 1 76 77
49 1 78 79
50 1 79 80
51 1 80 81
52 1 20 21
53 1 25 26
54 1 24 25
55 1 99 100
56 1 98 99
57 1 26 27
58 1 97 98
59 1 96 97
60 1 93 94
61 1 92 93
62 1 84 85
63 1 81 82
64 1 14 15
65 1 18 19
66 1 13 14
67 1 19 20
68 1 11 12
69 1 12 13
70 1 21 22
71 1 22 23
72 1 1 2
73 1 100 1
74 1 23 24
75 1 3 4
76 1 95 96
77 1 94 95
78 1 5 6
79 1 4 5
80 1 15 16
81 1 16 17
82 1 17 18
83 1 10 11
84 1 7 8
85 1 9 10
86 1 6 7
87 1 2 3
88 1 8 9
89 1 60 61
90 1 83 84
91 1 61 62
92 1 59 60
93 1 58 59
94 1 90 91
95 1 85 86
96 1 86 87
97 1 82 83
98 1 89 90
99 1 88 89
100 1 87 88

Angles

1 1 61 62 63
2 1 56 57 58
3 1 65 66 67
4 1 64 65 66
5 1 63 64 65
6 1 62 63 64
7 1 54 55 56
8 1 55 56 57
9 1 53 54 55
10 1 34 35 36
11 1 33 34 35
12 1 36 37 38
13 1 66 67 68
14 1 35 36 37
15 1 67 68 69
16 1 69 70 71
17 1 68 69 70
18 1 50 51 52
19 1 27 28 29
20 1 52 53 54
21 1 49 50 51
22 1 51 52 53
23 1 28 29 30
24 1 44 45 46
25 1 46 47 48
26 1 48 49 50
27 1 47 48 49
28 1 30 31 32
29 1 29 30 31
30 1 37 38 39
31 1 41 42 43
32 1 45 46 47
33 1 32 33 34
34 1 31 32 33
35 1 39 40 41
36 1 38 39 40
37 1 40 41 42
38 1 74 75 76
39 1 70 71 72
40 1 71 72 73
41 1 26 27 28
42 1 90 91 92
43 1 43 44 45
44 1 42 43 44
45 1 76 77 78
46 1 73 74 75
47 1 72 73 74
48 1 75 76 77
49 1 77 78 79
50 1 78 79 80
51 1 79 80 81
52 1 19 20 21
53 1 24 25 26
54 1 23 24 25
55 1 98 99 100
56 1 97 98 99
57 1 25 26 27
58 1 96 97 98
59 1 95 96 97
60 1 92 93 94
61 1 91 92 93
62 1 83 84 85
63 1 80 81 82
64 1 13 14 15
65 1 17 18 19
66 1 12 13 14
67 1 18 19 20
68 1 10 11 12
69 1 11 12 13
70 1 20 21 22
71 1 21 22 23
72 1 100 1 2
73 1 99 100 1
74 1 22 23 24
75 1 2 3 4
76 1 94 95 96
77 1 93 94 95
78 1 4 5 6
79 1 3 4 5
80 1 14 15 16
81 1 15 16 17
82 1 16 17 18
83 1 9 10 11
84 1 6 7 8
85 1 8 9 10
86 1 5 6 7
87 1 1 2 3
88 1 7 8 9
89 1 59 60 61
90 1 82 83 84
91 1 60 61 62
92 1 58 59 60
93 1 57 58 59
94 1 89 90 91
95 1 84 85 86
96 1 85 86 87
97 1 81 82 83
98 1 88 89 90
99 1 87 88 89
100 1 86 87 88
