LAMMPS data file via write_data, version 12 Dec 2018, timestep = 20000

100 atoms
1 atom types
100 bonds
1 bond types
100 angles
1 angle types

-2.5000000000000000e+01 2.5000000000000000e+01 xlo xhi
-2.5000000000000000e+01 2.5000000000000000e+01 ylo yhi
-2.5000000000000000e+01 2.5000000000000000e+01 zlo zhi

Masses

1 1

Atoms # angle

58 1 1 -4.6169633566590251e+00 -3.5953621270884621e+00 -7.5129723607546506e+00 0 0 0
59 1 1 -4.3680160730008630e+00 -3.7045381514183497e+00 -8.4558644260169515e+00 0 0 0
57 1 1 -5.3015530458478750e+00 -3.2501507807018761e+00 -6.9120623198744680e+00 0 0 0
84 1 1 -8.2184557946234644e+00 -2.2981916591904321e+00 -4.6071952819949615e+00 0 0 0
85 1 1 -8.2440397927670688e+00 -3.0773394668778296e+00 -5.0820238354073668e+00 0 0 0
88 1 1 -7.1427202898278921e+00 -1.0547583584941618e+00 -6.1237042399646411e+00 0 0 0
87 1 1 -7.8126807676124557e+00 -1.5215855948053083e+00 -5.6328816633131504e+00 0 0 0
60 1 1 -3.5842375007399840e+00 -4.2738706831829081e+00 -8.7244906825770698e+00 0 0 0
61 1 1 -3.5628906976536170e+00 -4.1664184458345028e+00 -7.8177603184701177e+00 0 0 0
56 1 1 -5.8179089028856428e+00 -3.7072667071129777e+00 -6.2916853605638288e+00 0 0 0
83 1 1 -8.4609701941135285e+00 -1.4366259733778424e+00 -4.2931023738946514e+00 0 0 0
55 1 1 -6.0343448982949202e+00 -3.1324676607602382e+00 -5.4831922219619242e+00 0 0 0
90 1 1 -5.7928543241051145e+00 -1.9263736075420135e+00 -5.8967148929211630e+00 0 0 0
86 1 1 -8.0030729080961454e+00 -2.4675650207935029e+00 -5.7707130706590677e+00 0 0 0
89 1 1 -6.1877022111135220e+00 -1.0956677044618615e+00 -6.2465782042653517e+00 0 0 0
62 1 1 -3.0846728085100796e+00 -4.4678485710197071e+00 -7.0118232813845172e+00 0 0 0
63 1 1 -2.1488328521013340e+00 -4.6919807736038264e+00 -7.1346779378957557e+00 0 0 0
82 1 1 -7.8913263630583437e+00 -8.0486939266136892e-01 -3.9609876927493266e+00 0 0 0
81 1 1 -7.8698807513963800e+00 -1.6405667002381805e+00 -3.4339431211640750e+00 0 0 0
80 1 1 -7.4140995329910995e+00 -2.1005428653090834e+00 -2.6803283051849025e+00 0 0 0
54 1 1 -6.7760946094165453e+00 -2.5878344670823008e+00 -5.5591796103766189e+00 0 0 0
91 1 1 -5.1363002782429259e+00 -1.8462275491091995e+00 -5.1915639628197701e+00 0 0 0
52 1 1 -6.1400501661645155e+00 -1.9039518330590230e+00 -4.7490321986402115e+00 0 0 0
53 1 1 -7.0878311708589079e+00 -2.2285197165215611e+00 -4.7561567014367778e+00 0 0 0
64 1 1 -1.8769102510653384e+00 -5.3192630795762099e+00 -6.3607111066003466e+00 0 0 0
66 1 1 -2.6949866982583361e+00 -5.0336085368369829e+00 -4.9515051573625133e+00 0 0 0
94 1 1 -5.5191077262025967e+00 -3.6755323650225642e+00 -3.5198929209627616e+00 0 0 0
93 1 1 -5.6775465622801331e+00 -2.8213702938431506e+00 -3.9502354593099436e+00 0 0 0
67 1 1 -2.9904193980078877e+00 -4.4078275187100004e+00 -4.1622074761042240e+00 0 0 0
79 1 1 -6.4853506114188386e+00 -2.1734480865759411e+00 -2.9206354333314493e+00 0 0 0
78 1 1 -5.6204740047274191e+00 -1.9359235790247777e+00 -2.5221190865348859e+00 0 0 0
92 1 1 -5.0869595133219949e+00 -2.6409468509409963e+00 -4.6784530645619160e+00 0 0 0
51 1 1 -6.4730444997609045e+00 -1.0094432777857374e+00 -4.6584745929936160e+00 0 0 0
1 1 1 -6.5355690436077927e+00 -4.0090290298842923e+00 -2.8078405732903361e-01 0 0 0
50 1 1 -6.9912124201116166e+00 -1.7178425036687020e-01 -4.6357594145191117e+00 0 0 0
65 1 1 -2.6343546047181543e+00 -4.8958613574394745e+00 -5.9234580440275142e+00 0 0 0
96 1 1 -5.4992846819398720e+00 -5.3294827966792138e+00 -2.6214427547613823e+00 0 0 0
95 1 1 -5.5608390285760008e+00 -4.4744272339765496e+00 -3.1042085049469477e+00 0 0 0
12 1 1 -2.2791344331710186e+00 -3.3141294186439080e-01 -3.9909972651168375e+00 0 0 0
68 1 1 -2.0425365859272917e+00 -4.1997851541426288e+00 -4.0334254756952426e+00 0 0 0
76 1 1 -4.5997437708256141e+00 -1.5186066571918175e+00 -2.3219193006255723e+00 0 0 0
77 1 1 -4.9080290894248559e+00 -2.4120877948550437e+00 -2.1134498297342588e+00 0 0 0
31 1 1 -3.2474247381367118e+00 -3.7411844263545255e+00 -2.6552310502081657e+00 0 0 0
35 1 1 -3.7180213846293539e+00 -9.3272460825181369e-01 -3.8368017876240947e+00 0 0 0
2 1 1 -6.5636748744017899e+00 -3.0361595882977022e+00 -3.0476000156080091e-01 0 0 0
71 1 1 -1.4872888597890148e+00 -2.7751024255395991e+00 -1.8865618140252791e+00 0 0 0
72 1 1 -1.7990661364016338e+00 -2.1284841437715705e+00 -1.1941350129310317e+00 0 0 0
97 1 1 -6.3175604234057205e+00 -4.9438454461970895e+00 -2.4273750297322212e+00 0 0 0
15 1 1 -1.3446684441990220e+00 -1.6957198515220380e+00 -3.7448604620057724e+00 0 0 0
28 1 1 -7.3138557088939848e-01 -4.2512125459141803e+00 -2.6078115713296346e+00 0 0 0
36 1 1 -3.8458541001480229e+00 -6.1558045224447977e-01 -2.9210374034544389e+00 0 0 0
75 1 1 -3.8837773536628575e+00 -2.0817067557208673e+00 -2.0191153396839914e+00 0 0 0
29 1 1 -1.6592956559246455e+00 -4.5963387082502383e+00 -2.7978264983747501e+00 0 0 0
30 1 1 -2.5823435209561891e+00 -4.4215694972379049e+00 -2.8748788427090375e+00 0 0 0
70 1 1 -1.6582250040346509e+00 -2.9363807720646316e+00 -2.7979662672036096e+00 0 0 0
69 1 1 -1.6845491024433707e+00 -3.4134422052839177e+00 -3.6100624700117816e+00 0 0 0
7 1 1 -6.0935483047171193e+00 -2.2283227828946545e-01 -3.2859335153006124e+00 0 0 0
32 1 1 -3.2934765086485198e+00 -3.1716250336015555e+00 -3.4829306011685923e+00 0 0 0
16 1 1 -4.2674956665462321e-01 -1.9321438984646506e+00 -3.8934547178091310e+00 0 0 0
33 1 1 -3.2607426157223069e+00 -2.2185835537812917e+00 -3.6287226434651290e+00 0 0 0
98 1 1 -7.0464136109682602e+00 -4.5214606964853230e+00 -1.9078744203352493e+00 0 0 0
99 1 1 -7.2129819879280834e+00 -3.6917369513735192e+00 -1.4974851780932850e+00 0 0 0
3 1 1 -7.0355930076695383e+00 -2.5294337241751044e+00 -1.1110089882749603e+00 0 0 0
4 1 1 -6.6008200594798545e+00 -1.7603964691897325e+00 -1.5220690990759349e+00 0 0 0
6 1 1 -6.5211467933608320e+00 -5.5459827983104193e-01 -2.5317669477638090e+00 0 0 0
5 1 1 -6.4459731467358994e+00 -8.5585574737963122e-01 -1.5792726421721597e+00 0 0 0
74 1 1 -3.5840472143034510e+00 -2.9027589280755355e+00 -1.6122736430816311e+00 0 0 0
73 1 1 -2.6317384912258817e+00 -2.6389949647938908e+00 -1.5357715353442762e+00 0 0 0
34 1 1 -3.0122957487071287e+00 -1.4771295648524145e+00 -4.1718030512715840e+00 0 0 0
100 1 1 -6.2815372688820581e+00 -3.4669361010618984e+00 -1.1044214697262362e+00 0 0 0
13 1 1 -1.5463672723838662e+00 -5.8760044720965754e-01 -3.4479802722059416e+00 0 0 0
14 1 1 -7.0132101266643865e-01 -1.1531957089788891e+00 -3.2615904628745498e+00 0 0 0
8 1 1 -5.0748893087105627e+00 -2.6389286706079895e-01 -3.2994728926645474e+00 0 0 0
37 1 1 -4.5474604021539324e+00 -9.6652247694963847e-02 -2.5123623904014716e+00 0 0 0
27 1 1 -3.7502155616073909e-02 -3.9578977487912916e+00 -3.1515585482223369e+00 0 0 0
39 1 1 -5.7458976806524351e+00 7.0310248863492819e-01 -1.3140016401152097e+00 0 0 0
41 1 1 -6.3249091617247473e+00 1.7048380209894372e+00 -9.5968973599268081e-01 0 0 0
9 1 1 -4.3866472569661354e+00 1.8670879048941894e-01 -3.7819376732287959e+00 0 0 0
40 1 1 -5.4391422160981380e+00 1.5718372286022861e+00 -1.2699493842901870e+00 0 0 0
10 1 1 -3.6031848164542462e+00 7.7177253992902550e-01 -3.9341290593450147e+00 0 0 0
49 1 1 -6.5582464204060162e+00 4.9099026483742853e-01 -4.1090779345841577e+00 0 0 0
47 1 1 -7.0602203749150085e+00 7.9144825773747385e-01 -2.2692824851790077e+00 0 0 0
48 1 1 -6.7319524678084051e+00 5.5490742551424643e-01 -3.1563613100542165e+00 0 0 0
46 1 1 -6.5585351724459651e+00 1.6134691113445139e+00 -2.3241462807644946e+00 0 0 0
45 1 1 -7.5097537065610869e+00 1.6997851798157149e+00 -2.2002662173698173e+00 0 0 0
44 1 1 -7.0237489526743326e+00 2.5555299970292480e+00 -2.2099817012739682e+00 0 0 0
43 1 1 -7.3385679850810757e+00 2.4203796674553648e+00 -1.2949289627353622e+00 0 0 0
42 1 1 -6.6643925226651026e+00 2.4882694494569568e+00 -6.5665625004482009e-01 0 0 0
38 1 1 -5.1238087329254220e+00 5.2229211687609212e-01 -2.0926746560012912e+00 0 0 0
11 1 1 -2.8765902279090327e+00 2.6369231021055656e-01 -4.4159536739857268e+00 0 0 0
20 1 1 -3.7654419875121609e-01 3.3007539557439830e-01 -3.4930905561176817e+00 0 0 0
19 1 1 -6.6298039647286300e-01 2.7094922358304910e-02 -4.3689816465645315e+00 0 0 0
26 1 1 2.7396114626629209e-01 -3.1059308967808019e+00 -2.8868332237041177e+00 0 0 0
22 1 1 6.4075294152326590e-01 -4.8735465006742051e-01 -2.7623351312867750e+00 0 0 0
17 1 1 4.3350316242899561e-02 -1.5638453091082563e+00 -4.6377076456159694e+00 0 0 0
24 1 1 2.7837630405772462e-01 -1.4677229510428447e+00 -1.8843188239262822e+00 0 0 0
25 1 1 3.9167991373244809e-01 -2.2398647715376443e+00 -2.4676198287272748e+00 0 0 0
23 1 1 9.9293674732896631e-01 -8.0153495326865043e-01 -1.9257254853289816e+00 0 0 0
21 1 1 3.8198986162432663e-01 -2.4082853881682767e-01 -3.6457685492564602e+00 0 0 0
18 1 1 4.8392419821089473e-02 -5.7368349811813024e-01 -4.5921414822477606e+00 0 0 0

Velocities

58 2.2951075942069460e-01 4.6575637115164081e-01 6.0217166064613303e-01
59 -1.1157276268439353e+00 -1.9212363089740872e-01 1.4336921954309081e+00
57 4.3405860101719540e-04 1.3134484010363012e-01 -9.8022698878120229e-01
84 -2.5843845593376140e+00 6.3612289123824617e-01 -1.2661624952005857e+00
85 -1.6124503249277273e+00 -8.6210053470154313e-02 2.4036175872672256e+00
88 1.3295443369392270e+00 4.9801086575302594e-01 -2.4242788053454170e-01
87 -1.6209649109603945e+00 7.6763489496939830e-01 1.2660572915025645e+00
60 1.2496807445916802e+00 -2.9298458884015872e+00 -2.2435332778178085e-01
61 1.3920887870761656e-01 -1.2532872902820125e+00 -2.6123511556495654e-01
56 -3.6175641397528135e-01 -7.0367951894062086e-01 -7.2946713253557394e-01
83 2.9047662902902638e-01 -2.5646251922514379e-02 -6.8138971463048104e-01
55 -3.6268292815843955e-01 2.1397308956440975e-01 -1.3070641095742133e+00
90 4.5942641254251698e-01 -3.6501043641782260e-01 1.2693714950858741e+00
86 9.7635106083314316e-01 -8.1375867788987899e-01 3.1892485953078581e-01
89 6.3416333490316856e-01 -5.2239847102190051e-01 1.4839999395698082e+00
62 -9.2509235293571823e-01 1.1003746673998400e+00 -1.2195771882373535e-01
63 6.7401212490923657e-01 3.6919655633082427e-01 -2.0339491968504726e+00
82 3.0754259017002581e+00 6.4953931490867145e-02 -1.0567267350106189e+00
81 -1.2752445461386042e+00 -6.7876183694768000e-02 -1.2445756578213381e+00
80 -1.5478812662133437e+00 1.7256723526287123e+00 -1.1972316570470995e-01
54 -8.1706793094141930e-02 4.3418606957543855e-02 1.6786881038823802e+00
91 9.0143612822150243e-01 -6.1314029620660335e-02 -2.0859828438635506e+00
52 -1.5991726272903797e-01 -1.0395280618654814e+00 -8.3898535687619025e-01
53 -8.1437293652093912e-01 3.3463888566396516e-01 -8.1849287374702273e-01
64 -1.3166377168371872e+00 1.4001234654712597e-01 -7.3134745560005732e-01
66 -1.5654514350230027e+00 3.7819718645878020e-01 1.2061954281250044e-01
94 -6.8630883405126214e-03 -1.8433825176866203e-02 1.9020167532062200e+00
93 7.2561552593731526e-01 -3.6161386244446309e-01 6.3546375899289187e-01
67 7.5220822142029253e-01 -2.0722336524860259e+00 8.6100924304293780e-01
79 7.4885798761425496e-02 -5.8354229318015793e-01 -1.2174249413782390e+00
78 9.5600867497883069e-01 -8.1956643479531399e-01 -7.8940255046098806e-01
92 -1.0453274652684025e-01 -7.3980743152715323e-01 -9.3050789936522860e-01
51 -1.3813437162075011e+00 -1.4221180226202157e-01 -2.2685544299112705e+00
1 -2.7105420459397109e+00 2.2837954844597443e+00 8.7537279586857242e-01
50 3.7188602302206059e-01 -8.3363902033940715e-02 -5.7101026480583839e-01
65 9.9382796257551353e-01 -8.6755936168041015e-01 3.8071990228718422e-01
96 -4.7831815876084899e-01 1.9368946130397030e-01 -4.8043102964055429e-01
95 5.6679028315704993e-01 -3.3204885993302347e-02 -6.7157732984789908e-01
12 3.2765671410638753e+00 -1.1601556386553593e+00 -5.9502444558593215e-01
68 -5.5621136355732814e-01 -1.1117110935306560e+00 -1.9142757923151166e-01
76 5.0315011985793703e-02 -4.9573217730639585e-01 2.0362907492128701e+00
77 -7.4307112544739584e-01 -1.0173185686066974e+00 8.3589399351827531e-01
31 -1.2871603979439006e+00 1.7515161195560731e+00 7.2638136321351821e-01
35 -1.3679043429212148e+00 -1.8555757758849343e+00 7.6056679682486195e-01
2 2.2672204876160396e+00 2.6579365737426192e-01 2.2525609668119393e+00
71 -1.0485174107765909e+00 8.5404524653850522e-01 -6.8632858699359267e-01
72 -7.2855985157505565e-01 -1.0561770933517074e+00 -2.1783912232454045e-01
97 -8.5078055742251080e-01 -1.8866297751380607e+00 1.6230619046960748e+00
15 -8.9889664017605686e-01 6.6258889930584364e-01 1.8309336997845729e+00
28 -6.7999510233420990e-01 2.3682586004038813e+00 -6.4248546922867233e-01
36 -6.7833497133597731e-01 5.2185850799878586e-01 5.1523883771998191e-01
75 2.5071046580336309e-01 2.1353098040540179e+00 -7.0767352860576838e-01
29 1.2508304699908250e+00 1.7323162102386816e-01 -9.3317772043417757e-01
30 2.1507447286403019e+00 4.6377617047351238e-01 -3.9934706871181269e-01
70 -8.4891200083516449e-01 -4.6841380954319745e-01 -3.5515267510066867e-01
69 1.1287396848814064e+00 -5.0968205368841923e-01 -7.6378233327519085e-01
7 3.7694484494759928e-02 -3.2644832058031281e-01 5.6488615140016196e-01
32 2.2589561094272176e-01 -5.0624035095195308e-01 -7.8737730866964351e-01
16 1.5193690163796676e+00 6.0049620978934137e-01 -6.3625825940809866e-01
33 1.6945277401857335e+00 2.6731548983589271e-01 6.9341323813870648e-01
98 -9.7953396489670796e-01 4.0373553353576319e-01 1.7475323811123147e+00
99 2.0034319235462628e-01 -1.2296148382233478e+00 2.7441617169926547e-02
3 4.3016079506402155e-02 6.9502807973704561e-01 2.9457770038707878e-02
4 -1.2546910646499607e+00 7.7505609000989550e-01 -1.1597807881464957e+00
6 1.2365655122380045e-01 -1.7810761055113433e+00 -3.8827289311376023e-02
5 1.2547751491172383e+00 -2.9841664068029661e-01 -2.0803063677814935e+00
74 6.9792679046952200e-01 -2.1893319787022736e+00 -6.9662398296835826e-01
73 1.0835188369020057e+00 -2.1003975599815736e+00 1.2453346523369475e+00
34 2.5024468755292721e+00 2.4622908900774113e-01 3.0129265463137500e-01
100 -3.2986669494014553e-01 7.5794628461784563e-01 7.3499259061066780e-01
13 -3.0755703226338316e-01 -8.3058701143091573e-01 8.3940851154933616e-01
14 -3.1122774850416091e-02 1.0270089537464666e-04 -7.1775181984355979e-02
8 -2.9134699167917189e-01 2.4013458828350589e+00 7.2545679002541252e-01
37 4.7249152081357582e-01 1.1158219489883781e+00 1.9184464584137167e-01
27 -1.6703800185263191e+00 8.5805237206638130e-01 8.7526009102342672e-01
39 4.4307105109423411e-01 -8.9509133589117729e-01 -7.4436945002212773e-01
41 -8.3171921928763670e-01 -4.3973658658810955e-01 6.9524939830047289e-02
9 7.5174754123872511e-01 -4.3680356803766512e-01 -1.1917186232456103e+00
40 -7.7133853369753147e-01 2.0951903894225516e+00 -5.9313598162966930e-01
10 -2.6840373608104762e-02 -7.1579639557552255e-02 -8.9412328966500920e-01
49 2.4603738972869560e+00 2.1644239288449177e-02 1.3787688785769601e+00
47 -4.2478981952078843e-01 1.0824848450609224e+00 -5.5138161011838140e-02
48 1.2135325899835845e+00 8.5339397884871415e-01 8.2963117261080699e-01
46 1.7581211136447783e-01 1.0838357626995006e-01 -4.7040072791942944e-01
45 -1.3032471022889891e+00 9.6291840060661626e-01 2.6150366625076310e-01
44 -4.0336365286296533e-01 -8.8480073568087192e-01 -5.3002418346094171e-01
43 -5.2623013733739943e-01 -6.3118149534864532e-01 5.8637340338128308e-01
42 -4.9179974720423941e-01 -1.1569337765851584e+00 -4.3621753821337284e-01
38 -1.1865826195858558e+00 -7.4859201674144771e-01 2.5670585351949743e-02
11 1.1309492873724736e+00 -1.9386913412134829e-01 -1.4507566819429807e+00
20 2.9068701365913974e-01 -3.8405118825731110e-01 1.7299733580090739e+00
19 -1.6105543629696878e-02 -9.0979962439620712e-02 -5.4918286030245200e-01
26 -1.0435877780052984e+00 -1.2859303149270331e+00 -1.0751102807778107e-01
22 -4.9016217626170050e-01 6.2698362620719283e-01 -1.3222074838415219e+00
17 -1.1060551579460778e+00 -7.2219530311564961e-01 2.2395425814373218e-01
24 -1.4742538846380823e-01 -3.5654452887340382e-01 -2.5512254625330963e+00
25 -1.8693940112066323e-01 8.1518689277513923e-01 3.1886849531644210e-02
23 -8.2513078009902663e-01 2.2856985623752291e+00 -1.3491780460469500e+00
21 1.6730371501444619e+00 1.4598464353061451e+00 4.8073351952483817e-01
18 -4.1544398236964747e-01 2.3482517449117073e+00 -7.2745953035052857e-01

Bonds

1 1 58 59
2 1 59 60
3 1 57 58
4 1 84 85
5 1 85 86
6 1 88 89
7 1 87 88
8 1 60 61
9 1 61 62
10 1 56 57
11 1 83 84
12 1 55 56
13 1 90 91
14 1 86 87
15 1 89 90
16 1 62 63
17 1 63 64
18 1 82 83
19 1 81 82
20 1 80 81
21 1 54 55
22 1 91 92
23 1 52 53
24 1 53 54
25 1 64 65
26 1 66 67
27 1 94 95
28 1 93 94
29 1 67 68
30 1 79 80
31 1 78 79
32 1 92 93
33 1 51 52
34 1 1 2
35 1 50 51
36 1 65 66
37 1 96 97
38 1 95 96
39 1 12 13
40 1 68 69
41 1 76 77
42 1 77 78
43 1 31 32
44 1 35 36
45 1 2 3
46 1 71 72
47 1 72 73
48 1 97 98
49 1 15 16
50 1 28 29
51 1 36 37
52 1 75 76
53 1 29 30
54 1 30 31
55 1 70 71
56 1 69 70
57 1 7 8
58 1 32 33
59 1 16 17
60 1 33 34
61 1 98 99
62 1 99 100
63 1 3 4
64 1 4 5
65 1 6 7
66 1 5 6
67 1 74 75
68 1 73 74
69 1 34 35
70 1 100 1
71 1 13 14
72 1 14 15
73 1 8 9
74 1 37 38
75 1 27 28
76 1 39 40
77 1 41 42
78 1 9 10
79 1 40 41
80 1 10 11
81 1 49 50
82 1 47 48
83 1 48 49
84 1 46 47
85 1 45 46
86 1 44 45
87 1 43 44
88 1 42 43
89 1 38 39
90 1 11 12
91 1 20 21
92 1 19 20
93 1 26 27
94 1 22 23
95 1 17 18
96 1 24 25
97 1 25 26
98 1 23 24
99 1 21 22
100 1 18 19

Angles

1 1 57 58 59
2 1 58 59 60
3 1 56 57 58
4 1 83 84 85
5 1 84 85 86
6 1 87 88 89
7 1 86 87 88
8 1 59 60 61
9 1 60 61 62
10 1 55 56 57
11 1 82 83 84
12 1 54 55 56
13 1 89 90 91
14 1 85 86 87
15 1 88 89 90
16 1 61 62 63
17 1 62 63 64
18 1 81 82 83
19 1 80 81 82
20 1 79 80 81
21 1 53 54 55
22 1 90 91 92
23 1 51 52 53
24 1 52 53 54
25 1 63 64 65
26 1 65 66 67
27 1 93 94 95
28 1 92 93 94
29 1 66 67 68
30 1 78 79 80
31 1 77 78 79
32 1 91 92 93
33 1 50 51 52
34 1 100 1 2
35 1 49 50 51
36 1 64 65 66
37 1 95 96 97
38 1 94 95 96
39 1 11 12 13
40 1 67 68 69
41 1 75 76 77
42 1 76 77 78
43 1 30 31 32
44 1 34 35 36
45 1 1 2 3
46 1 70 71 72
47 1 71 72 73
48 1 96 97 98
49 1 14 15 16
50 1 27 28 29
51 1 35 36 37
52 1 74 75 76
53 1 28 29 30
54 1 29 30 31
55 1 69 70 71
56 1 68 69 70
57 1 6 7 8
58 1 31 32 33
59 1 15 16 17
60 1 32 33 34
61 1 97 98 99
62 1 98 99 100
63 1 2 3 4
64 1 3 4 5
65 1 5 6 7
66 1 4 5 6
67 1 73 74 75
68 1 72 73 74
69 1 33 34 35
70 1 99 100 1
71 1 12 13 14
72 1 13 14 15
73 1 7 8 9
74 1 36 37 38
75 1 26 27 28
76 1 38 39 40
77 1 40 41 42
78 1 8 9 10
79 1 39 40 41
80 1 9 10 11
81 1 48 49 50
82 1 46 47 48
83 1 47 48 49
84 1 45 46 47
85 1 44 45 46
86 1 43 44 45
87 1 42 43 44
88 1 41 42 43
89 1 37 38 39
90 1 10 11 12
91 1 19 20 21
92 1 18 19 20
93 1 25 26 27
94 1 21 22 23
95 1 16 17 18
96 1 23 24 25
97 1 24 25 26
98 1 22 23 24
99 1 20 21 22
100 1 17 18 19
