LAMMPS data file via write_data, version 12 Dec 2018, timestep = 20000

100 atoms
1 atom types
100 bonds
1 bond types
100 angles
1 angle types

-2.5000000000000000e+01 2.5000000000000000e+01 xlo xhi
-2.5000000000000000e+01 2.5000000000000000e+01 ylo yhi
-2.5000000000000000e+01 2.5000000000000000e+01 zlo zhi

Masses

1 1

Atoms # angle

69 1 1 7.5070282461398996e+00 2.5486136800629394e-01 -3.8864961901387316e+00 0 0 0
70 1 1 7.9686756397328731e+00 1.0297303375985787e+00 -3.5501606354613671e+00 0 0 0
67 1 1 6.9443944268828339e+00 1.0253777699794893e+00 -5.4024562610412969e+00 0 0 0
10 1 1 8.8158821349476266e+00 2.3099800799850185e+00 -5.1074799698898410e+00 0 0 0
71 1 1 7.3690195382053876e+00 1.7646166991788483e+00 -3.1659421156252527e+00 0 0 0
72 1 1 8.0687600244602820e+00 1.5349181103095098e+00 -2.4593635077425042e+00 0 0 0
8 1 1 1.0709748948250505e+01 2.7779634836581435e+00 -4.9331985563244105e+00 0 0 0
68 1 1 7.4425684332803712e+00 4.3724616926009885e-01 -4.8242554035879595e+00 0 0 0
65 1 1 6.6194018979260392e+00 9.4872174973971402e-01 -7.0315138469764555e+00 0 0 0
66 1 1 6.9343841332323057e+00 5.5575982082362940e-01 -6.2073042663758171e+00 0 0 0
11 1 1 8.2462644281474482e+00 2.0144087734311320e+00 -4.3949136077801363e+00 0 0 0
9 1 1 9.7373021499962320e+00 2.5676174569191388e+00 -5.0601319019425040e+00 0 0 0
73 1 1 7.7505276219592245e+00 2.3704682396397025e+00 -2.0978244278453704e+00 0 0 0
74 1 1 7.0810329336807900e+00 2.8609368130453561e+00 -1.7057255166012575e+00 0 0 0
7 1 1 1.1045341550332299e+01 3.5938763704267691e+00 -5.2641587825228662e+00 0 0 0
63 1 1 7.0101662976493770e+00 2.5591473365930208e+00 -7.0984485732198834e+00 0 0 0
64 1 1 6.4091310755993796e+00 1.8009174678321720e+00 -7.3406017145389830e+00 0 0 0
6 1 1 1.1787015530129278e+01 3.2878738675777055e+00 -4.6921034923371217e+00 0 0 0
5 1 1 1.2232343574799421e+01 4.0066235721197430e+00 -4.2371093437098404e+00 0 0 0
28 1 1 7.2511953223647962e+00 6.3635216298469155e+00 -3.4581410402075941e+00 0 0 0
79 1 1 5.1484435337582548e+00 2.4272189144780429e+00 -3.8960540973290478e+00 0 0 0
78 1 1 5.9312523364473817e+00 2.8699992475400777e+00 -3.4794480492419670e+00 0 0 0
75 1 1 6.6892133708283321e+00 2.5304727786235151e+00 -2.6286839601416832e+00 0 0 0
81 1 1 4.1300574500086356e+00 2.6264398519074592e+00 -3.9453539828634292e+00 0 0 0
77 1 1 5.8389310573376205e+00 3.7822558748490125e+00 -3.1169887326102428e+00 0 0 0
60 1 1 6.9728941821843407e+00 2.8473532132308685e+00 -5.1507441189347976e+00 0 0 0
59 1 1 8.0208660001317913e+00 2.9498783296282003e+00 -5.1614430582622770e+00 0 0 0
62 1 1 7.4772020816895095e+00 1.8565699422394255e+00 -6.5931564590016674e+00 0 0 0
61 1 1 6.8622839255607486e+00 2.3775310270933470e+00 -5.9798082060393734e+00 0 0 0
33 1 1 9.9910762601956904e+00 3.1130612480832673e+00 -2.9956820578980867e+00 0 0 0
32 1 1 9.3808935194725418e+00 3.9175163211749622e+00 -2.9796744394049544e+00 0 0 0
4 1 1 1.1749218113342515e+01 4.8489854430787824e+00 -4.2048381723304713e+00 0 0 0
27 1 1 6.7431921195713898e+00 7.2182879543356826e+00 -3.7028366972229758e+00 0 0 0
30 1 1 7.7078753624307099e+00 4.4791895230657541e+00 -3.0677270934074143e+00 0 0 0
29 1 1 7.4050629150488305e+00 5.4051775320436537e+00 -3.1784348221361340e+00 0 0 0
31 1 1 8.6551212139007880e+00 4.4659098525941623e+00 -3.2161065987570905e+00 0 0 0
84 1 1 2.5953399148045220e+00 4.0739873476824977e+00 -2.7284479667038011e+00 0 0 0
83 1 1 2.6877891828435230e+00 3.2401535477386809e+00 -3.1340680015168609e+00 0 0 0
82 1 1 3.6159861037440080e+00 3.0081516133236899e+00 -3.2275338627185302e+00 0 0 0
80 1 1 4.6022033175803747e+00 2.0417116344163699e+00 -4.5911393065063555e+00 0 0 0
76 1 1 6.7037393908632552e+00 3.5033871204669587e+00 -2.7341508354216479e+00 0 0 0
35 1 1 1.0178773912890804e+01 3.1939577876687113e+00 -1.2255444635795401e+00 0 0 0
58 1 1 7.9443359969087011e+00 3.7742707502326969e+00 -4.5903890550928059e+00 0 0 0
34 1 1 1.0164935862892310e+01 2.8256619677727612e+00 -2.0876686518618732e+00 0 0 0
26 1 1 6.2646100909263689e+00 6.8283362337043281e+00 -3.0064543677782605e+00 0 0 0
57 1 1 7.1726241613475992e+00 4.3733002375219518e+00 -4.5231712628294449e+00 0 0 0
56 1 1 7.0154242697912688e+00 3.8675541812586749e+00 -3.7029841531675780e+00 0 0 0
3 1 1 1.2037479440867342e+01 5.1075913006989788e+00 -3.3421679194753620e+00 0 0 0
2 1 1 1.1923255610578369e+01 5.6184304074655493e+00 -2.5472543231466465e+00 0 0 0
86 1 1 2.9026029745569275e+00 3.7896798080601304e+00 -9.4609620650346871e-01 0 0 0
85 1 1 2.8387338129381643e+00 3.5780312677253390e+00 -1.9222306914467886e+00 0 0 0
18 1 1 4.4065159445477224e+00 2.4605632664112975e+00 -1.8553344578816082e+00 0 0 0
13 1 1 6.5097583027063699e+00 1.9228520152176469e+00 -3.7491899996390634e+00 0 0 0
87 1 1 3.2835320122259253e+00 4.1901087294715014e+00 -2.3259065328769876e-01 0 0 0
88 1 1 3.8470953193017201e+00 5.0352185671586405e+00 -4.2651408403671481e-01 0 0 0
19 1 1 4.2017302684893147e+00 3.3498353634255413e+00 -1.4385744706353105e+00 0 0 0
20 1 1 4.2140408862879521e+00 3.9395005329027781e+00 -2.2148469601798140e+00 0 0 0
22 1 1 4.5207942668240690e+00 5.2276123784232427e+00 -3.2995144810054562e+00 0 0 0
21 1 1 4.7632138178173884e+00 4.4200178599040099e+00 -2.8627633160959784e+00 0 0 0
36 1 1 9.6759684392244676e+00 4.0076355110129969e+00 -1.2657269803887223e+00 0 0 0
23 1 1 5.0093587017581367e+00 5.6390669350690290e+00 -4.0179096531377017e+00 0 0 0
25 1 1 5.9568407412564248e+00 5.9508775167299612e+00 -2.8956013957655080e+00 0 0 0
24 1 1 5.1339687913205365e+00 6.2303529487276172e+00 -3.3122284007770340e+00 0 0 0
1 1 1 1.2064730986587538e+01 6.3604862336945240e+00 -1.8579656936443893e+00 0 0 0
55 1 1 6.6130373769283830e+00 4.7794954799055738e+00 -3.4795442794754177e+00 0 0 0
100 1 1 1.2154379129718157e+01 5.8756649095560940e+00 -1.1040984127818965e+00 0 0 0
99 1 1 1.1236926675613313e+01 5.9786056383754023e+00 -1.0250237100723492e+00 0 0 0
17 1 1 4.7886979409663448e+00 1.6338936450621768e+00 -1.6081232843784818e+00 0 0 0
90 1 1 4.9866740003063690e+00 4.0949864087972419e+00 -7.1044112628727063e-01 0 0 0
93 1 1 7.6065526596887336e+00 4.6197713828803648e+00 -7.9338985434089770e-01 0 0 0
14 1 1 5.5987739092926496e+00 1.5465185856108479e+00 -3.5829731974770764e+00 0 0 0
16 1 1 5.3872838460832915e+00 1.1402340692075177e+00 -2.2253542592181024e+00 0 0 0
37 1 1 1.0069466031525595e+01 4.5557951871578464e+00 -6.2530033159834364e-01 0 0 0
52 1 1 6.8631076029792126e+00 5.8814977858079782e+00 -1.2553220007060717e+00 0 0 0
12 1 1 7.3493275755257885e+00 1.7691965798195659e+00 -4.2823586183711715e+00 0 0 0
94 1 1 8.2213656165660218e+00 5.0478615564347331e+00 -2.5227561147948646e-01 0 0 0
91 1 1 5.9424935691074205e+00 3.9462696207167869e+00 -9.4158066870625201e-01 0 0 0
54 1 1 6.7697404922397402e+00 5.1178876089078491e+00 -2.4558157244575343e+00 0 0 0
53 1 1 6.7055973119010535e+00 6.0804498090504300e+00 -2.2411672919512591e+00 0 0 0
51 1 1 6.3705432286818215e+00 5.4865973968264603e+00 -4.8438664480133692e-01 0 0 0
15 1 1 5.7996675437655165e+00 8.2956816736406724e-01 -2.9585657539689554e+00 0 0 0
92 1 1 6.9050967401188972e+00 3.8921691161054834e+00 -8.2948559629223451e-01 0 0 0
98 1 1 1.0534476409250821e+01 5.4583478204095481e+00 -4.9410553299036175e-01 0 0 0
50 1 1 7.2231367007949032e+00 5.2782297191176148e+00 -1.1674887797704003e-01 0 0 0
97 1 1 9.6877953623771784e+00 5.8878122541964801e+00 -4.5356284360628418e-01 0 0 0
89 1 1 4.3312645376991012e+00 4.2564755680123474e+00 -4.4033403158266274e-02 0 0 0
43 1 1 6.9379462986975815e+00 3.2384775206562089e+00 6.0191487955435963e-01 0 0 0
45 1 1 7.1079209237892638e+00 3.5486616442082970e+00 1.6914719680280006e+00 0 0 0
44 1 1 6.9370783331703816e+00 2.6590572535111519e+00 1.3302390299619977e+00 0 0 0
38 1 1 1.0094662254050288e+01 4.0427544415078689e+00 2.1673898842982481e-01 0 0 0
47 1 1 6.1344553974693277e+00 4.6353743344346086e+00 1.3166774700790769e+00 0 0 0
42 1 1 7.8654600527720966e+00 3.1874409440515827e+00 3.4097280604776858e-01 0 0 0
41 1 1 7.8983125589516439e+00 4.0022956215535013e+00 8.8362437975907915e-01 0 0 0
48 1 1 6.3652308197175973e+00 4.6972171050396705e+00 4.0369404402350390e-01 0 0 0
46 1 1 6.2663765980724655e+00 3.9104232323389732e+00 1.8718608639175456e+00 0 0 0
49 1 1 7.0908562020216621e+00 5.1562793058021112e+00 8.1183142884273629e-01 0 0 0
96 1 1 9.3020283100456052e+00 5.1949098926763364e+00 2.0246770735761185e-01 0 0 0
39 1 1 9.5008699399497871e+00 3.2651628074078758e+00 3.7933358666746941e-01 0 0 0
40 1 1 8.6594501609139147e+00 3.4226010203340689e+00 7.8672034068297680e-01 0 0 0
95 1 1 8.4908870868083195e+00 5.1920545238059015e+00 6.7884563661465314e-01 0 0 0

Velocities

69 -2.4750826349400974e+00 -7.1066118376382459e-01 3.1791122627002333e-01
70 -1.1958025788414881e+00 -2.0944191868595458e-01 -6.2677745245290337e-02
67 2.8834864778597563e-01 3.7927839508317185e-02 1.5939888166358558e+00
10 -1.0020879640534004e+00 2.6552064362635885e-01 -1.9530586092430737e+00
71 -4.6697436920211832e-01 -1.4041832362450448e+00 1.4479176958872799e+00
72 -9.9906728576797521e-01 -1.3387837397789004e+00 -1.8367356812480353e+00
8 -2.4438492375850024e-01 1.1577201746799126e+00 8.5550237495245340e-01
68 -2.2959533033230137e+00 -3.7673884217613157e-01 -1.1819197063490654e+00
65 -3.8455135087922826e-01 1.6094766649954884e+00 -8.1338302391373629e-01
66 1.3781994690260391e+00 -1.4417710751133195e+00 9.4796125322030678e-01
11 5.8017815319119204e-01 -3.1848231486796313e-01 1.1580951185678190e+00
9 3.1040992769680842e-01 3.8244211521979599e-01 -8.1715370402579235e-01
73 -1.2794708541844391e+00 1.6110977533135343e-01 1.4472497943375986e+00
74 -5.5314577814507659e-01 -2.0188331531744574e+00 -1.2607265283481783e+00
7 7.4998578941724192e-01 -1.3474629428670832e+00 -8.3680845283101357e-01
63 1.6773774432164374e+00 8.4971329056463230e-01 3.2213082790851277e-01
64 -5.6166844799843678e-02 7.4320328638598043e-01 8.8186645372546446e-01
6 5.6277438543052871e-01 1.6051626404746377e+00 -3.0617070800956353e-03
5 2.9483174212368413e-01 -9.1141424667599433e-02 6.1491520768111585e-01
28 -7.7093885922748195e-01 7.5448087926066942e-02 5.1971367748083731e-02
79 -1.6563607709955954e+00 -3.0171517095488304e-01 -5.9362880654286920e-01
78 -1.0938809857477005e+00 1.4563834112539070e-01 3.2294315690386560e-01
75 -2.9912385683618953e-02 -7.0986908012267047e-01 2.2730766653271846e+00
81 -5.1755819376764922e-01 1.4354339508727052e+00 1.4394596678271907e+00
77 5.5056251530725331e-01 1.2658452394982416e+00 2.2131723854122010e-01
60 -6.7627589592793347e-01 7.8693892532995402e-01 3.4540325552391993e-01
59 -4.3838443724257176e-01 -3.3738732255065546e-02 -6.2406236072241927e-01
62 3.8870694105755671e-01 -9.3497333580040332e-01 1.0581191849031877e+00
61 2.5552276325740375e-01 -2.6142857339389403e-01 -3.4547889666799336e-01
33 1.0123218630809432e+00 1.4998912741205328e+00 -9.9316621611487754e-01
32 1.2148850581699415e+00 -2.9795578654136029e-01 1.6345685929143767e+00
4 -1.3608778824076941e+00 5.1088102101397664e-02 7.2443946297885220e-01
27 1.2656686916202839e+00 1.3096466914617888e+00 7.0382896054219724e-01
30 -1.4322386117305346e+00 -1.6253053251419889e+00 5.9132989125110558e-02
29 -1.4942848753136340e-02 1.4592277568689940e+00 1.1789187505727647e-02
31 1.4397696810194853e+00 1.3878100207591915e+00 1.1861625243332234e-01
84 -1.6505048308895591e+00 -3.2649528998114535e-01 -1.1452594293010279e+00
83 9.1234315685259290e-02 -6.4740851940444555e-01 1.2431474394598296e+00
82 -3.7074992456957062e-01 8.0239519274957194e-01 5.3196808008180052e-01
80 2.2833631724385572e-01 -6.1976638984053600e-01 -2.7836863318317695e-01
76 5.8838805799211233e-02 -1.3793329816445805e+00 -9.3953015618365068e-02
35 6.3300673405402530e-01 1.1679694738159303e+00 2.5220058433229542e-01
58 4.7898385650119957e-01 1.1688267739130231e+00 -3.0465859290425612e-01
34 8.8704055577445173e-01 7.9459398317937058e-01 7.7550258087640223e-01
26 1.3018431308287239e+00 6.9817541245616399e-01 2.3228608227814410e-01
57 7.9201943881146830e-01 5.9353231838277987e-01 8.1332303136991768e-01
56 -2.0085378042443017e-01 -1.7540309597485071e+00 7.6326377936877920e-01
3 1.1647419851920051e+00 -5.5400197922505959e-02 9.8686351188008448e-02
2 -2.5779624908816234e-01 9.0695841720618797e-01 -5.1194190372507642e-01
86 9.3838496159091833e-01 3.3532215838233326e-01 2.2238683115973927e+00
85 2.1759569546553389e-01 -9.2892697052797346e-01 2.4563341053480803e-01
18 7.5807093494654909e-01 3.8244817238980128e-01 -1.6326149893131626e-02
13 9.4056704105417399e-01 1.9580579559429714e-01 1.5636931202479415e-01
87 -7.5307103135653786e-01 1.1407698130073891e+00 1.5521989670479577e+00
88 -2.5722512401140485e-01 4.3916964306561973e-01 -2.2824733811069839e-01
19 9.3306950506701236e-01 1.5524210788539776e+00 -1.5812742801176007e+00
20 -1.0929649179494054e+00 2.1935979082175087e-02 7.6390585589406201e-03
22 6.1654980660783787e-01 3.0611212407005695e-01 1.0723321390431939e+00
21 -8.7106115642150317e-01 7.3730616697736684e-01 4.5297704227495766e-01
36 -1.0404307150093133e+00 6.0681777653445879e-01 4.7263860030520233e-01
23 -5.2632059485472650e-02 3.0169049178218643e-01 3.5381067070795108e-02
25 -2.4961804983973153e+00 -5.9348650679441695e-01 4.4645877320154176e-01
24 5.5418294613898378e-01 5.7402027152046975e-01 4.5288707853198917e-01
1 1.1031384212085291e+00 1.8788705422421195e-01 2.9278161137422676e-01
55 -2.8392017256282220e+00 -1.0122275851560554e+00 1.3358450446809504e+00
100 9.3513422777192023e-01 3.8146820932433950e-01 -6.6213754810489234e-01
99 3.1334994976822861e-01 -5.2295361924176698e-01 -9.5348538720176745e-01
17 -7.8247770649691750e-01 1.1488888325251263e+00 1.9022895424122548e+00
90 6.4214421749815953e-01 -2.0242506220377743e-01 -1.0439119320500769e+00
93 -6.6852230847644412e-02 -7.7645180356447030e-01 1.3191980173388631e+00
14 4.5835746490240586e-01 1.4134698507069343e+00 6.3348884258492177e-01
16 1.3959945142018839e+00 1.0046039261813413e+00 1.3536885239544976e+00
37 8.2272603151744184e-01 -7.4246856723390009e-01 2.0908475062992174e-01
52 -6.0330212058116617e-01 -1.5000911335457146e+00 1.4644895054242602e+00
12 -1.1985676070930933e+00 8.1792806013389496e-01 7.1147179799955484e-01
94 -6.0633792165472855e-01 3.7029806900740520e-01 5.0276683684808998e-01
91 4.5239686851815897e-01 -1.3340818383744566e+00 1.2636707304032118e+00
54 -3.4508971934665100e-01 -1.0243267116548966e+00 -1.9255682839694257e+00
53 5.4001848821643128e-01 -2.6605714118574744e+00 3.5495309376518186e-01
51 -2.2827167813923337e+00 4.2917039023519515e-01 -2.8224889524642321e-01
15 1.2659127373349735e-01 2.9063998490859904e+00 -6.4835300508857729e-01
92 -1.3372940064484179e-01 -1.4016967566087626e-01 9.0335300630036941e-01
98 -4.5350979677082714e-01 -4.8427223291314203e-01 -1.1264038805607948e+00
50 4.2044705986405376e-02 -4.1360959263774705e-01 4.6921432041471417e-01
97 -1.2423722210082646e+00 -7.0920081759580722e-01 1.2709570527508551e-01
89 -7.4333465471755733e-01 -4.8936262572798617e-01 -5.3891325679943969e-01
43 4.6809484879062935e-01 -5.3135359318921910e-02 -2.2479753462732638e-01
45 -3.5152354858301715e-01 -2.8140223996025471e-01 3.5693616131514433e-01
44 -1.6073117789381788e+00 5.3456286146263821e-01 -5.6878141152255457e-01
38 1.5893469204510220e+00 -2.5443567116668273e+00 1.2885217254934909e+00
47 9.4325874579621632e-02 -3.3960274440971627e-01 8.2027197917023986e-01
42 -6.1799523008738488e-01 -2.3775939935792419e-02 -1.6904677387953104e+00
41 7.4975335640797225e-01 4.0785753162218781e-02 6.5539292858505183e-01
48 -3.4081762645764790e-01 1.1379735727398907e+00 -1.5319229928032665e-01
46 1.2611234203891213e+00 -1.5290251329266025e-01 -2.5645953748045003e-01
49 -1.1637669452904726e+00 -4.3287403523368538e-02 5.0890828107517916e-01
96 -3.9409851644005228e-01 1.9449928875467446e+00 -9.9899972747617249e-01
39 -2.9772189157795503e-01 3.5634645613975113e-01 4.5788563764616669e-01
40 4.7352050463854939e-01 7.8943680395304838e-01 1.5225525347871813e+00
95 -3.3426636605346938e-01 -2.3319327188235489e-01 -7.9220460559815253e-01

Bonds

1 1 69 70
2 1 70 71
3 1 67 68
4 1 10 11
5 1 71 72
6 1 72 73
7 1 8 9
8 1 68 69
9 1 65 66
10 1 66 67
11 1 11 12
12 1 9 10
13 1 73 74
14 1 74 75
15 1 7 8
16 1 63 64
17 1 64 65
18 1 6 7
19 1 5 6
20 1 28 29
21 1 79 80
22 1 78 79
23 1 75 76
24 1 81 82
25 1 77 78
26 1 60 61
27 1 59 60
28 1 62 63
29 1 61 62
30 1 33 34
31 1 32 33
32 1 4 5
33 1 27 28
34 1 30 31
35 1 29 30
36 1 31 32
37 1 84 85
38 1 83 84
39 1 82 83
40 1 80 81
41 1 76 77
42 1 35 36
43 1 58 59
44 1 34 35
45 1 26 27
46 1 57 58
47 1 56 57
48 1 3 4
49 1 2 3
50 1 86 87
51 1 85 86
52 1 18 19
53 1 13 14
54 1 87 88
55 1 88 89
56 1 19 20
57 1 20 21
58 1 22 23
59 1 21 22
60 1 36 37
61 1 23 24
62 1 25 26
63 1 24 25
64 1 1 2
65 1 55 56
66 1 100 1
67 1 99 100
68 1 17 18
69 1 90 91
70 1 93 94
71 1 14 15
72 1 16 17
73 1 37 38
74 1 52 53
75 1 12 13
76 1 94 95
77 1 91 92
78 1 54 55
79 1 53 54
80 1 51 52
81 1 15 16
82 1 92 93
83 1 98 99
84 1 50 51
85 1 97 98
86 1 89 90
87 1 43 44
88 1 45 46
89 1 44 45
90 1 38 39
91 1 47 48
92 1 42 43
93 1 41 42
94 1 48 49
95 1 46 47
96 1 49 50
97 1 96 97
98 1 39 40
99 1 40 41
100 1 95 96

Angles

1 1 68 69 70
2 1 69 70 71
3 1 66 67 68
4 1 9 10 11
5 1 70 71 72
6 1 71 72 73
7 1 7 8 9
8 1 67 68 69
9 1 64 65 66
10 1 65 66 67
11 1 10 11 12
12 1 8 9 10
13 1 72 73 74
14 1 73 74 75
15 1 6 7 8
16 1 62 63 64
17 1 63 64 65
18 1 5 6 7
19 1 4 5 6
20 1 27 28 29
21 1 78 79 80
22 1 77 78 79
23 1 74 75 76
24 1 80 81 82
25 1 76 77 78
26 1 59 60 61
27 1 58 59 60
28 1 61 62 63
29 1 60 61 62
30 1 32 33 34
31 1 31 32 33
32 1 3 4 5
33 1 26 27 28
34 1 29 30 31
35 1 28 29 30
36 1 30 31 32
37 1 83 84 85
38 1 82 83 84
39 1 81 82 83
40 1 79 80 81
41 1 75 76 77
42 1 34 35 36
43 1 57 58 59
44 1 33 34 35
45 1 25 26 27
46 1 56 57 58
47 1 55 56 57
48 1 2 3 4
49 1 1 2 3
50 1 85 86 87
51 1 84 85 86
52 1 17 18 19
53 1 12 13 14
54 1 86 87 88
55 1 87 88 89
56 1 18 19 20
57 1 19 20 21
58 1 21 22 23
59 1 20 21 22
60 1 35 36 37
61 1 22 23 24
62 1 24 25 26
63 1 23 24 25
64 1 100 1 2
65 1 54 55 56
66 1 99 100 1
67 1 98 99 100
68 1 16 17 18
69 1 89 90 91
70 1 92 93 94
71 1 13 14 15
72 1 15 16 17
73 1 36 37 38
74 1 51 52 53
75 1 11 12 13
76 1 93 94 95
77 1 90 91 92
78 1 53 54 55
79 1 52 53 54
80 1 50 51 52
81 1 14 15 16
82 1 91 92 93
83 1 97 98 99
84 1 49 50 51
85 1 96 97 98
86 1 88 89 90
87 1 42 43 44
88 1 44 45 46
89 1 43 44 45
90 1 37 38 39
91 1 46 47 48
92 1 41 42 43
93 1 40 41 42
94 1 47 48 49
95 1 45 46 47
96 1 48 49 50
97 1 95 96 97
98 1 38 39 40
99 1 39 40 41
100 1 94 95 96
