LAMMPS data file via write_data, version 12 Dec 2018, timestep = 20000

200 atoms
1 atom types
200 bonds
1 bond types
200 angles
1 angle types

-3.5000000000000000e+01 3.5000000000000000e+01 xlo xhi
-3.5000000000000000e+01 3.5000000000000000e+01 ylo yhi
-3.5000000000000000e+01 3.5000000000000000e+01 zlo zhi

Masses

1 1

Atoms # angle

68 1 1 -5.0781693279696771e+00 -5.3017549514192941e-01 -4.7238430796986268e+00 0 0 0
79 1 1 -1.4167602354193640e+00 -3.4018604147865839e+00 -2.6735974302917351e+00 0 0 0
72 1 1 -4.5562902096276892e+00 -2.8459632041119791e+00 -4.2924120957279692e+00 0 0 0
78 1 1 -1.5542637332197951e+00 -4.3034851076067966e+00 -2.5491611110464145e+00 0 0 0
77 1 1 -1.7375282579371827e+00 -4.0913158006451891e+00 -3.4457526660622975e+00 0 0 0
70 1 1 -4.5528257951859459e+00 -1.9446089978999663e+00 -5.5840770788908172e+00 0 0 0
197 1 1 -1.3543426094456845e+00 -7.3882789265500257e+00 -4.2911031970705560e+00 0 0 0
5 1 1 -5.0266640313047795e-01 -4.1731477102873251e+00 -4.7303118224828458e+00 0 0 0
71 1 1 -4.4087709100363854e+00 -2.8587505160284876e+00 -5.2944835648550201e+00 0 0 0
1 1 1 -1.8608285540611020e+00 -5.2518521603586192e+00 -5.9258747608237323e+00 0 0 0
81 1 1 -2.5293095537594366e+00 -3.7687538673359353e+00 -1.6008267713329594e+00 0 0 0
200 1 1 -2.0751757225591434e+00 -5.4341951099299095e+00 -4.9847103499408130e+00 0 0 0
84 1 1 -1.7427971622483578e+00 -4.4339994487115515e+00 -5.2746203927867508e-01 0 0 0
198 1 1 -1.8942558915355701e+00 -6.8200731624066790e+00 -4.8085940324444092e+00 0 0 0
69 1 1 -4.8618669104687315e+00 -1.4360294582981543e+00 -4.8092302746421201e+00 0 0 0
73 1 1 -3.6655644245123193e+00 -2.7986170238061181e+00 -4.5045014334160713e+00 0 0 0
199 1 1 -1.3568374628274964e+00 -6.0370759384788899e+00 -4.6158404956719439e+00 0 0 0
76 1 1 -1.9687739320947666e+00 -3.8756198518278087e+00 -4.3733715427106770e+00 0 0 0
75 1 1 -2.8916999439254107e+00 -4.0393267344720272e+00 -4.4426612188852772e+00 0 0 0
74 1 1 -2.8396662687960075e+00 -3.1448821743350086e+00 -4.8265844305427930e+00 0 0 0
83 1 1 -2.1719871222599361e+00 -3.5708252880809344e+00 -2.9323551175200779e-01 0 0 0
82 1 1 -2.2847835779622017e+00 -3.0315964762514471e+00 -1.0190850027383185e+00 0 0 0
80 1 1 -2.0599413612258872e+00 -3.0430051039395156e+00 -2.0523406843085441e+00 0 0 0
4 1 1 -2.2871763021192659e-01 -4.6933112793955338e+00 -5.4813196469002206e+00 0 0 0
3 1 1 -9.0877105144502468e-01 -5.3912820479459311e+00 -5.5453764390610978e+00 0 0 0
196 1 1 -4.5212252092893090e-01 -7.7631918110917821e+00 -4.4920866244311748e+00 0 0 0
86 1 1 -5.2356350418082653e-01 -5.1406779886496548e+00 -5.7200593641393938e-01 0 0 0
2 1 1 -1.3830851294021551e+00 -4.5695586836637663e+00 -5.5731525296851938e+00 0 0 0
14 1 1 -1.7394960970835627e-01 -2.6880553027852501e+00 -4.9980558757940646e-01 0 0 0
85 1 1 -1.3691413786159379e+00 -5.1976314499933736e+00 -1.0358012199355242e+00 0 0 0
192 1 1 -2.6744479428472323e-01 -8.8179790492368717e+00 -2.3370448587540156e+00 0 0 0
15 1 1 -1.0574740708741124e+00 -2.4732900815424106e+00 -2.8301757711411413e-01 0 0 0
6 1 1 -1.1728261382907461e-01 -3.5402556951876196e+00 -4.1300330189290761e+00 0 0 0
195 1 1 -3.5109023662849424e-02 -8.5755505941516699e+00 -4.6048757272011773e+00 0 0 0
16 1 1 -4.9258596114012621e-01 -2.8258380705619017e+00 5.1415381048863718e-01 0 0 0
134 1 1 -1.3765704502380498e+00 -6.5992824539467709e-01 3.6262758249066391e+00 0 0 0
133 1 1 -4.9676085703319217e-01 -4.8182591359126348e-01 3.9351756434092988e+00 0 0 0
132 1 1 -1.4610436432444944e-02 -1.3337030806759773e+00 3.9460086941361081e+00 0 0 0
135 1 1 -9.6230600153897994e-01 -4.1791240100573793e-02 2.9994200177394590e+00 0 0 0
50 1 1 -1.0283408394515070e+00 3.2646881304619351e+00 -1.2327946062922845e+00 0 0 0
66 1 1 -4.8080877374667308e+00 1.1241847716210769e+00 -3.7226426451332908e+00 0 0 0
56 1 1 -2.5270997715398762e+00 5.7508258828190617e-01 -4.1356245743551623e-01 0 0 0
62 1 1 -4.5940145399162766e+00 3.2157228509428211e+00 -2.1908309587010892e+00 0 0 0
52 1 1 -1.3567863116726795e+00 1.6804268594776586e+00 -1.6885402650388339e+00 0 0 0
64 1 1 -5.2904259595794123e+00 2.1855257631046432e+00 -2.9430818385200164e+00 0 0 0
61 1 1 -4.0323180885192063e+00 2.8202326902523422e+00 -1.5050458823420110e+00 0 0 0
49 1 1 -8.7688920498117262e-01 4.2217823489662916e+00 -1.0885966790485273e+00 0 0 0
67 1 1 -5.0860128545500727e+00 3.1378542051604358e-01 -4.1996504454052994e+00 0 0 0
63 1 1 -5.4879397861607293e+00 2.8123172572964656e+00 -2.0917675898567611e+00 0 0 0
65 1 1 -4.4298074323416374e+00 1.8013272275449914e+00 -3.1050327359337468e+00 0 0 0
51 1 1 -1.5553973509737187e+00 2.4711805128128539e+00 -1.2236481800779162e+00 0 0 0
53 1 1 -1.1874181267596702e+00 1.4868765995872617e+00 -7.2356208273590639e-01 0 0 0
60 1 1 -3.7997798685276978e+00 2.8438933741047663e+00 -5.8246724599815969e-01 0 0 0
59 1 1 -3.2131226964591670e+00 2.1030651511367040e+00 -9.1212736056228327e-01 0 0 0
57 1 1 -2.7404635587878938e+00 1.0519299808161808e+00 3.9740032579519113e-01 0 0 0
138 1 1 -3.0382996743246338e-01 1.5964088820803901e+00 2.0966481608069993e+00 0 0 0
137 1 1 -8.2472007426472993e-01 9.1799606875547690e-01 1.7824870622598596e+00 0 0 0
43 1 1 -4.9721540102201360e-02 3.6625369879719747e+00 2.6613842430625878e+00 0 0 0
136 1 1 -1.3203932608762168e+00 7.4240799758809006e-01 2.5441084250030581e+00 0 0 0
55 1 1 -1.8615551047883538e+00 5.3316026137822947e-01 3.4763935839501114e-01 0 0 0
42 1 1 -4.2247492201345997e-03 2.7264390504458431e+00 2.7633635623641850e+00 0 0 0
58 1 1 -3.2694491340382803e+00 1.8160450023258525e+00 4.1687854773942455e-02 0 0 0
54 1 1 -1.7724368913006030e+00 1.4241298832048315e+00 3.6975928079466189e-02 0 0 0
188 1 1 2.3980887433901992e+00 -7.9701503381574437e+00 -3.8331609449499391e+00 0 0 0
187 1 1 2.1496756352289026e+00 -7.0615008863416913e+00 -3.6499382200212325e+00 0 0 0
186 1 1 1.7577680144115830e+00 -6.3609161963719059e+00 -4.2133912495422541e+00 0 0 0
7 1 1 7.5871705067763440e-01 -3.2417316853545133e+00 -4.1478977330934770e+00 0 0 0
190 1 1 1.3634506730655782e+00 -8.7082911925432906e+00 -2.7350816215971947e+00 0 0 0
189 1 1 1.6458489810468337e+00 -7.9749335498486600e+00 -3.3153705368552591e+00 0 0 0
185 1 1 2.7219684313098838e+00 -6.2214822576867261e+00 -4.2643887322064842e+00 0 0 0
11 1 1 7.5379903507928603e-01 -2.8708882822393611e+00 -1.6686390021467334e+00 0 0 0
183 1 1 2.5883185023457647e+00 -4.7571054435356972e+00 -3.8770435335668636e+00 0 0 0
184 1 1 3.3021047313614429e+00 -5.4205845071321255e+00 -3.9066397687351535e+00 0 0 0
193 1 1 2.3248578964389266e-01 -8.4795715464971089e+00 -3.0561249306230014e+00 0 0 0
182 1 1 2.7285519591767624e+00 -4.1044043350181765e+00 -3.2139897722004940e+00 0 0 0
181 1 1 2.8764151653281753e+00 -4.9235001368170535e+00 -2.6940543276962861e+00 0 0 0
180 1 1 2.4907872279591201e+00 -5.6368480179863694e+00 -2.2208133673287862e+00 0 0 0
179 1 1 3.2030234509717403e+00 -5.4870233759188967e+00 -1.6143209810256420e+00 0 0 0
178 1 1 3.0077401455332309e+00 -5.7271905057818939e+00 -6.7905808869754591e-01 0 0 0
177 1 1 3.6558621214149061e+00 -6.3004987465160438e+00 -2.9540540159025608e-01 0 0 0
176 1 1 3.8608453471976349e+00 -6.9180336892918950e+00 -9.3867032994978938e-01 0 0 0
191 1 1 6.5571670255755343e-01 -9.1426365329050032e+00 -2.2815261335719796e+00 0 0 0
175 1 1 4.5971260612623821e+00 -7.0736820392819517e+00 -1.6445547349642007e+00 0 0 0
174 1 1 5.5593113481487260e+00 -6.9241394921322543e+00 -1.5610384621337676e+00 0 0 0
10 1 1 1.5229899363949655e+00 -3.3742627814656987e+00 -1.9740033807250441e+00 0 0 0
194 1 1 3.8323940607101287e-01 -9.0600722052879874e+00 -3.7918377637121425e+00 0 0 0
8 1 1 1.5502121078277451e+00 -3.3079910757665560e+00 -3.5272006651306556e+00 0 0 0
87 1 1 2.6732343893187999e-01 -4.7297126956960405e+00 -1.2238020023789374e-01 0 0 0
9 1 1 1.8976329075807659e+00 -2.9002201069889133e+00 -2.7765414571112901e+00 0 0 0
102 1 1 7.1838456075806603e+00 -5.9520455365548885e+00 -2.6271719163440493e-01 0 0 0
33 1 1 2.5449803358142162e+00 -1.5871893669256694e+00 -4.1474212650579645e-01 0 0 0
12 1 1 7.8668800741993794e-01 -2.5173045543463402e+00 -7.7099627880752719e-01 0 0 0
101 1 1 6.5386826683272252e+00 -5.2024866110632964e+00 -3.8870181935723808e-01 0 0 0
30 1 1 2.6882693184487181e+00 -3.4580687760457645e+00 -5.3102210035665243e-01 0 0 0
31 1 1 2.0740580253173593e+00 -2.7758811415502045e+00 -7.6705524825512772e-01 0 0 0
32 1 1 2.2068508358349970e+00 -1.9984778676018928e+00 -1.2517178024281570e+00 0 0 0
173 1 1 5.6906637564539064e+00 -6.3511705109944856e+00 -7.7290590976952900e-01 0 0 0
103 1 1 6.6696181011713191e+00 -6.7235289382218228e+00 -3.0902166034567002e-01 0 0 0
27 1 1 2.2699025071288514e+00 -5.7504794055050192e+00 -2.6360509318809240e-03 0 0 0
34 1 1 1.7684838560243989e+00 -1.2276841910155640e+00 -7.6203426559092888e-02 0 0 0
20 1 1 3.1441521172258269e-01 -4.1451061894334282e+00 2.7354467350909633e+00 0 0 0
13 1 1 4.8109061869035141e-01 -2.8112884609298887e+00 1.6138759351443052e-01 0 0 0
147 1 1 3.6356340800960520e+00 -7.1804250526176616e-01 4.3433048448487046e+00 0 0 0
155 1 1 7.0625882254216172e+00 -1.9781106053640245e+00 4.9152623150589454e+00 0 0 0
156 1 1 7.4415742544119459e+00 -2.7699131117225924e+00 4.6162706255605546e+00 0 0 0
89 1 1 1.2062289855106421e+00 -5.2617137725941561e+00 1.0568184087670629e+00 0 0 0
161 1 1 8.0134672106407034e+00 -4.6921288891097346e+00 5.1889478142959815e+00 0 0 0
163 1 1 9.2300059128754697e+00 -5.2341572448545373e+00 4.0247869446467579e+00 0 0 0
164 1 1 8.2740645483367405e+00 -5.3982355669845177e+00 4.0469065215467621e+00 0 0 0
19 1 1 7.6568846462965112e-01 -3.6437123693252600e+00 2.0172485466040802e+00 0 0 0
24 1 1 1.1168834079812704e+00 -6.5755324731655334e+00 1.2301785051240397e+00 0 0 0
154 1 1 6.1132339381743970e+00 -1.7321568846516362e+00 5.0737672398200626e+00 0 0 0
126 1 1 2.3624905236243308e+00 -1.3647848558122927e-01 5.7883184958928648e+00 0 0 0
146 1 1 3.5474826104357851e+00 -7.2581967375861656e-01 3.4064573003874612e+00 0 0 0
37 1 1 1.2075979029832664e+00 -6.3750344356526578e-01 1.8956995932386442e+00 0 0 0
172 1 1 5.2943875481773137e+00 -6.3878790283114837e+00 6.8368169671399998e-02 0 0 0
171 1 1 4.7414842654899951e+00 -5.6072398366216198e+00 3.0114916271477538e-01 0 0 0
28 1 1 2.4797226605613263e+00 -4.8349139056611721e+00 9.5127327173533976e-02 0 0 0
91 1 1 2.3290997772132083e+00 -4.5475666452846619e+00 1.7080296544778908e+00 0 0 0
162 1 1 8.7103386899383235e+00 -4.5570836503005117e+00 4.4676411113015728e+00 0 0 0
151 1 1 4.6307255569690522e+00 -1.7198888566463111e+00 6.6187498609856812e+00 0 0 0
90 1 1 1.3780390581095612e+00 -4.8550602165889458e+00 1.9583418835844906e+00 0 0 0
95 1 1 4.9157800099829032e+00 -3.1796095811826723e+00 1.2549256132286228e+00 0 0 0
98 1 1 6.4643365757336033e+00 -4.2707093595307501e+00 1.4078617109311971e+00 0 0 0
153 1 1 5.5195917508176020e+00 -1.9986641835326000e+00 5.7767345596728967e+00 0 0 0
131 1 1 8.3032627325075603e-01 -1.7844731214301639e+00 3.9464533656856187e+00 0 0 0
35 1 1 1.4212053966345184e+00 -5.2832471936020997e-01 3.3939794338588070e-01 0 0 0
113 1 1 5.8772578661672679e+00 -3.0168570709849392e+00 3.9422132997478108e+00 0 0 0
152 1 1 5.2210658845350988e+00 -1.1178561537381599e+00 6.0419382584124870e+00 0 0 0
88 1 1 1.0796460363309350e+00 -4.6650166105829696e+00 2.5681415369618055e-01 0 0 0
116 1 1 6.0387544254253678e+00 -9.6190668954464598e-01 4.1256264090629360e+00 0 0 0
150 1 1 4.1321997912954229e+00 -1.5711193168843900e+00 5.8214651943481988e+00 0 0 0
158 1 1 8.0241541763875723e+00 -2.9832109960193538e+00 6.2254308203101507e+00 0 0 0
159 1 1 7.3881294234337638e+00 -3.6305890246691606e+00 5.8775853938679079e+00 0 0 0
18 1 1 3.2598204252458296e-01 -3.3518704564740274e+00 1.1971584813950926e+00 0 0 0
105 1 1 6.0245412856109741e+00 -7.4777911867734721e+00 1.3467593712550769e+00 0 0 0
157 1 1 8.0004645397526364e+00 -2.5161789102873531e+00 5.3911398448728010e+00 0 0 0
100 1 1 7.0622769881231298e+00 -4.6463635085426693e+00 2.2130282555772995e-01 0 0 0
170 1 1 5.1881195715674284e+00 -5.1794166768175129e+00 1.0119274334420896e+00 0 0 0
104 1 1 6.2489604751551520e+00 -7.1336799531071833e+00 4.5471784559145040e-01 0 0 0
94 1 1 4.3904294141570324e+00 -3.9060808663347881e+00 1.0096161309288676e+00 0 0 0
169 1 1 5.8234340265776634e+00 -5.2740488941967909e+00 1.7604875726115425e+00 0 0 0
92 1 1 3.2299049964452502e+00 -5.0100148757707199e+00 1.7684792898152761e+00 0 0 0
93 1 1 3.5029918454266058e+00 -4.3534694750629299e+00 1.2266566461301647e+00 0 0 0
149 1 1 3.2748349191828114e+00 -1.9480027706359093e+00 5.4531117924644876e+00 0 0 0
109 1 1 5.4902189007982223e+00 -6.0885300800942623e+00 3.1639899381632572e+00 0 0 0
168 1 1 6.3771783140615410e+00 -5.9212301402790359e+00 1.3014740572721917e+00 0 0 0
112 1 1 6.1176059475611613e+00 -3.9106051096308128e+00 3.9250310636627663e+00 0 0 0
36 1 1 7.8245664501296897e-01 -8.3517886814942977e-01 1.0455501499183584e+00 0 0 0
25 1 1 1.9789339527060028e+00 -7.0366352834643360e+00 1.2216348893696511e+00 0 0 0
114 1 1 6.0876021258143815e+00 -2.0546376917823799e+00 3.9469434423572300e+00 0 0 0
97 1 1 5.5620157874831682e+00 -4.1253588009438609e+00 1.0890035214568954e+00 0 0 0
99 1 1 7.2766255531240791e+00 -3.9606842957708501e+00 8.8113339655946710e-01 0 0 0
115 1 1 5.9017995177322682e+00 -1.3895960024916987e+00 3.2538506384199666e+00 0 0 0
160 1 1 8.0080270758663783e+00 -3.7076988171124530e+00 5.1766730903507030e+00 0 0 0
106 1 1 6.3242347441081881e+00 -8.1919580738572844e+00 1.8680995335647652e+00 0 0 0
107 1 1 6.3772932631275401e+00 -7.3110931050040699e+00 2.3719560457737612e+00 0 0 0
108 1 1 5.6375454462280583e+00 -6.7241154000874959e+00 2.4116085366690010e+00 0 0 0
167 1 1 6.9405067076007771e+00 -6.4212384160533045e+00 1.8534210373569173e+00 0 0 0
166 1 1 7.0298798575222792e+00 -6.3253122362339687e+00 2.8157200279828496e+00 0 0 0
110 1 1 5.8135183075447188e+00 -5.1884384614176149e+00 3.2589204582591447e+00 0 0 0
165 1 1 7.4769418870988593e+00 -5.8981730386013158e+00 3.5430707656651506e+00 0 0 0
111 1 1 6.5059081301293062e+00 -4.5445675966645895e+00 3.3510691244838440e+00 0 0 0
21 1 1 7.0066535626171267e-01 -4.9402105224862662e+00 3.0174765087223805e+00 0 0 0
26 1 1 2.4576706968865492e+00 -6.3125129676083267e+00 7.5179330287590984e-01 0 0 0
22 1 1 1.4195222684818815e-01 -5.3984328026742920e+00 2.2490340782805811e+00 0 0 0
117 1 1 6.5185680645797657e+00 -4.0137535116731321e-01 4.7540414698447657e+00 0 0 0
96 1 1 5.1232359636670513e+00 -3.8219240261779821e+00 1.9017046632467982e+00 0 0 0
17 1 1 1.1348666509757063e-02 -2.4111876644092378e+00 1.2227068554805300e+00 0 0 0
148 1 1 3.0295295179768442e+00 -1.3518835640235973e+00 4.7324283968793335e+00 0 0 0
23 1 1 4.9868874723663725e-01 -6.2426918706730454e+00 1.8906416271658792e+00 0 0 0
29 1 1 2.0613053535303383e+00 -3.8635713042242563e+00 5.3956681483320980e-02 0 0 0
130 1 1 1.0858251790543021e+00 -9.1132739805975360e-01 3.7287273789940336e+00 0 0 0
129 1 1 1.2871762099755968e+00 -5.1556603057137040e-01 4.5946855478613520e+00 0 0 0
127 1 1 2.3878898338394019e+00 -5.6421800645549539e-02 4.8057332434207813e+00 0 0 0
47 1 1 5.4625473572318251e-01 3.9136510204127060e+00 -6.1195733170638922e-01 0 0 0
48 1 1 5.6079620391151302e-02 4.1332912917391855e+00 -1.3694440236934364e+00 0 0 0
139 1 1 5.2741038824356534e-01 1.8098514863321908e+00 1.6850082084468705e+00 0 0 0
119 1 1 6.2876059301123117e+00 9.3990112134042458e-01 4.6126505881145974e+00 0 0 0
125 1 1 3.1162631177420042e+00 4.7402835849461222e-01 5.6090970233849049e+00 0 0 0
39 1 1 9.2449769302682661e-01 6.3987068335704533e-01 2.9009269223469820e+00 0 0 0
121 1 1 5.5042595028115464e+00 1.6009380149838253e+00 5.8188150212112220e+00 0 0 0
120 1 1 5.7174950327949503e+00 1.7074752790750143e+00 4.8099375490679490e+00 0 0 0
122 1 1 4.5856311552263733e+00 1.7025127565146851e+00 5.9529885483394569e+00 0 0 0
45 1 1 6.7193194078621921e-01 4.2591318113502510e+00 1.1751872025655388e+00 0 0 0
124 1 1 3.7263438634321067e+00 5.0494858627021744e-01 4.8898490621421420e+00 0 0 0
123 1 1 3.9885384113031472e+00 9.7447694692700648e-01 5.7195654353685974e+00 0 0 0
41 1 1 5.4749729175538442e-01 2.1786718763281887e+00 3.3865753464143720e+00 0 0 0
44 1 1 4.1670024105232817e-01 3.5992281730709994e+00 1.8288473655337991e+00 0 0 0
46 1 1 6.6035757469576883e-01 3.6692107344771649e+00 3.1749469865264612e-01 0 0 0
118 1 1 6.5586560654334285e+00 2.5856600010668629e-01 4.0160357182745523e+00 0 0 0
128 1 1 1.5520996777961502e+00 4.2312747786798011e-01 4.5182936704187338e+00 0 0 0
141 1 1 2.3255732164859979e+00 1.1089757699451754e+00 1.7522490349848194e+00 0 0 0
145 1 1 3.3049709011905053e+00 8.7735157840362996e-02 2.9756287885623682e+00 0 0 0
40 1 1 2.5246846975956061e-01 1.3306506930238997e+00 2.9852363572444998e+00 0 0 0
144 1 1 3.4411309883542249e+00 1.0304224783450833e+00 2.7338706198230671e+00 0 0 0
143 1 1 2.7860520543424871e+00 1.7619765615977843e+00 2.8933422231011257e+00 0 0 0
140 1 1 1.4044707923504667e+00 1.2847188899409527e+00 1.6345367628505452e+00 0 0 0
142 1 1 1.9468876560935628e+00 1.3359381717585859e+00 2.6123442161515862e+00 0 0 0
38 1 1 6.3140573224577645e-01 6.2965600925546941e-02 2.1765561286893864e+00 0 0 0

Velocities

68 6.8835794792409111e-01 -2.9760063341539511e-01 -2.7279079450825816e-01
79 -4.0740551386533225e-01 1.6292120363455620e+00 1.2601751690550520e+00
72 -2.0804054756535617e-01 -1.0732369686411978e+00 6.9984712101244406e-01
78 -8.1219004189201771e-01 -7.8108527168193620e-01 -9.7122847056121364e-01
77 1.8171530679727987e+00 -5.2459044669689714e-01 -4.8836016494376311e-01
70 3.3719994211815589e-02 3.7178141815299492e-01 2.2010050795865449e-01
197 6.4927088972084701e-01 5.7763797999459063e-02 8.2115429897247827e-01
5 1.3673748345377273e-01 4.1770131094022872e-01 -1.6641157078933527e-01
71 1.1729621731303183e-01 -6.1341193565532959e-01 3.1979355109823798e-01
1 -3.9577307827243247e-01 2.0388174286944205e-01 7.4157552346133804e-03
81 -3.3466472265827113e-01 -1.5560437981059809e+00 1.2143680060061559e+00
200 9.0605205861368476e-01 -1.9162167563135588e-02 -7.6023054238285329e-02
84 2.1764766310216337e+00 -6.2505080646239830e-01 1.7456738794983281e-01
198 -4.8919970252110778e-01 1.9711609732347355e+00 -1.7190613207506511e-01
69 1.0344516828388632e+00 1.2660167878095998e+00 4.8611997155588005e-02
73 6.3783220957379472e-01 -9.0287004919796332e-01 -9.3378363640822659e-01
199 -1.0888470203578240e+00 -6.2689326316579874e-01 1.6115730942488740e+00
76 1.7146725148034934e+00 -1.3093153388810974e-01 1.6130892459727320e-01
75 -1.9266287248271678e+00 -4.6996958168651992e-01 -4.5797169737094612e-01
74 2.4264074394427354e-01 -1.9127759522281029e-01 -4.1061692339085888e-02
83 6.8041545725629138e-01 1.8315117495153534e+00 8.9839780110803191e-01
82 7.1446369690065115e-01 -9.2682014442493654e-01 2.2605193175980720e-01
80 -1.6166241874894915e-01 5.6735681775495961e-01 -7.1425380117590553e-01
4 -8.3516666383690996e-01 -1.3123875798020641e+00 1.8210361896397395e-01
3 3.3896632190440612e-01 -8.9117293528437738e-02 7.8947856327906618e-01
196 1.6113493365959775e-01 1.8332087006207063e+00 -4.1247678173794106e-01
86 -3.5696949434075559e-02 7.7540491409486390e-01 -2.0171063356097223e+00
2 -2.4933262428638547e-01 -8.0325345096631162e-01 7.0349623371930314e-01
14 1.3581017678923608e+00 -1.8394155684060975e+00 6.4308366644680148e-02
85 2.3714843564644084e-01 -3.4211810964391747e+00 -2.4555274824502737e-01
192 -1.0929953066235593e-01 8.5715022074761460e-01 4.2912377333360741e-01
15 -1.1300109070697599e+00 3.5342005271003627e+00 8.1296505648926209e-03
6 -1.4479766030934564e+00 -2.6978742070667933e-01 1.3097352548615619e+00
195 -3.5090629522252192e-01 2.5779357392684699e-01 -3.8252049728573045e-02
16 -1.6576948627086110e+00 -1.3989629772029537e+00 -9.7915679193686467e-01
134 -5.1148799215763274e-01 1.1731377775801395e+00 -6.2956264151576691e-01
133 1.1562579831046986e+00 1.1667563877512146e+00 -1.5387357799846051e+00
132 -5.6321150126897601e-01 7.3533993393511687e-02 3.8071481158419046e-01
135 -2.2754212100224409e+00 -8.2064003928219242e-01 -9.8468190943643574e-01
50 8.5112135553442436e-01 8.4430117840004526e-01 3.9086602563820905e-01
66 1.3629340639836527e+00 -1.1581551997184809e+00 -1.3069631017379019e-01
56 -7.0851471206470618e-01 -1.7464622673949493e+00 6.0774334502799021e-01
62 -2.2286417069958922e-01 1.5289087038185494e+00 9.2945626972555401e-02
52 1.8648298912471390e+00 1.5549535360532261e+00 5.9677352124492611e-01
64 2.1350626335686859e-01 6.5177291600039788e-01 -5.9567522705260045e-01
61 1.7399621333486450e+00 -5.9857442634697437e-02 6.7475282376270607e-01
49 1.2528792060571152e+00 2.7062486360999499e-01 -8.6486204930645283e-01
67 -5.6837282853333437e-01 -4.0368988107726633e-01 -5.1596286480456655e-01
63 1.7798334626888688e+00 -2.2301524975851406e-01 -1.3051976022358383e+00
65 2.7448869756413558e-01 -4.9118276217111678e-01 -8.4752844898439761e-01
51 1.2381685347813776e+00 -8.1887238423994102e-01 -4.0054429191928684e-02
53 -7.0409622110950543e-01 -3.7603315654391550e-01 9.5274645624418941e-01
60 -4.0188572608135875e-01 7.0450649824826039e-01 -6.7371319875601776e-01
59 -2.2142050890852666e-02 -4.6873185004690032e-01 1.4607550906841729e+00
57 -1.1959154947942054e+00 -6.4337624835641682e-01 2.4949666826585015e-01
138 -1.0343786278732917e-01 6.8933726813383900e-01 8.1807681649312000e-02
137 -2.9988273869912846e-01 1.0543852814866139e+00 4.0415125226321064e-01
43 -1.3035191810580241e-01 -8.8320427869185159e-01 9.7776182904896414e-01
136 1.2190942225377193e+00 8.4090689115528305e-01 -1.1779673909169506e+00
55 2.8720791916725691e-02 -6.5767850198630906e-01 -1.3777509302895469e-01
42 -3.6074581786299276e-01 -8.0428110605952619e-02 -7.0856539176049749e-01
58 -9.8876041393598946e-01 9.1014512813951320e-01 -1.2751133218000381e+00
54 -9.7805995802337942e-01 -2.3517148952031275e-01 4.6260590125643919e-01
188 -7.9100298538657876e-01 -1.1416290238606658e-01 -1.5289471989091712e+00
187 1.3032230426174019e-01 -9.0492120326386649e-02 2.2235042346104241e+00
186 -1.0584002897940272e+00 -9.0290229924579662e-02 -1.5085258785292560e-01
7 -1.5644926425901931e+00 -3.0869736653432497e-02 -1.4935289405493035e+00
190 6.5684413518268792e-01 6.3728199994701318e-01 9.6287633608879508e-01
189 6.0692343424978779e-01 -1.2907367487462351e+00 -1.0796094441586783e+00
185 -7.7860264623415776e-01 6.8195168920139188e-02 -1.5820262192323293e+00
11 -5.5251541168136165e-01 4.8877313813851331e-01 1.0304374735417039e+00
183 1.1035411590917307e-01 -8.3458561870628989e-01 9.6965416229877366e-01
184 6.6007761001748821e-01 1.9024308604376214e+00 -1.8130631244055251e-01
193 6.3944134197033409e-01 -1.1502827602336936e-01 -1.5484711880647470e+00
182 6.1892911837897169e-01 -7.6175945653992505e-01 2.7504739838769249e-02
181 1.1288123281660276e+00 -5.5427346034524649e-01 -1.5735584157354956e+00
180 4.7272521834678105e-01 -2.2916400411288795e-01 1.2921415902876066e+00
179 -1.6002460821265360e-01 1.1357646387326128e+00 -2.6678728217912717e-01
178 -5.4051906934679594e-01 4.3217489478409157e-02 6.2028157477930446e-01
177 1.4053392535682923e+00 1.2569813258659182e+00 -1.0062570034135039e+00
176 1.1234093797702979e-01 -3.5211053823321004e-01 5.6328221900480535e-01
191 -8.7946194575639280e-01 1.1473563509347422e+00 -8.2711484958363779e-01
175 -1.5856321422527917e+00 1.1890634039812982e+00 -5.0610441542839368e-01
174 -7.7026838355569949e-01 -1.6462996191410935e+00 -5.1727891207879118e-01
10 -6.2525943197157385e-01 -3.8055143157173432e-01 1.8830857677172199e+00
194 -1.4577377083836618e+00 1.2377519011689309e+00 5.0057100422145562e-01
8 5.5155711753701020e-01 -2.2284662758215892e-01 -1.3092455845854001e+00
87 4.1559556087711935e-01 -5.1995901977867032e-01 3.0983452389966282e-01
9 -2.0952970251135516e+00 8.9196816752312669e-01 6.2222028792527939e-01
102 -4.4186819813691169e-01 6.3877350362651131e-02 1.7309956369384778e+00
33 1.1052086895020037e-01 -3.9616790776234445e-01 1.3891013996536264e-01
12 -1.2349958096236673e+00 1.4719658477406097e-01 -1.8251404096292443e+00
101 -8.0390734528154484e-01 -3.3371361624035090e-02 -1.0224640083682464e+00
30 1.4517694017330842e+00 3.6829410638321963e-01 -1.9722869456008835e-01
31 -8.6651366061198942e-01 -5.4748536771500800e-01 -5.7454792813299416e-01
32 1.9582786667884784e+00 3.8386167026681073e-01 -8.9869979582456372e-01
173 1.5901325397112596e+00 1.2651976440995980e+00 5.5273503379106836e-01
103 5.1310715751301328e-01 -2.6663055754863159e+00 -1.7082621415752302e+00
27 -2.0219790804391868e+00 1.0212589531903404e+00 1.2472844536618695e+00
34 3.8901066594637274e-01 7.4913620310335882e-01 -7.4049747771652519e-01
20 -3.9872208914111645e-01 -7.2824722341218973e-01 1.2385558774708745e+00
13 9.8472155493202140e-01 1.2748063194737784e+00 3.4909195126057058e-02
147 4.6098890087983924e-01 -6.5336132831964910e-01 1.5709279982545523e+00
155 -3.2450206391283004e-01 6.2798236108745265e-01 6.6687085042551705e-02
156 -7.2886565127981728e-01 7.9591044033938763e-01 -1.0883794766158259e+00
89 3.9145688439755921e-01 1.1355075810146329e+00 -7.5727726643903071e-01
161 9.9768117156607605e-02 5.1565261712349542e-01 -4.8293048676682099e-01
163 1.1619520463819512e-01 1.2880600761611203e+00 -9.4971895219994307e-01
164 -5.0339104089261044e-01 4.9174825683283341e-01 -1.4547177175369277e+00
19 -4.0613613300425333e-01 -8.4079382793892626e-02 -1.9656764552179060e+00
24 -8.8025747122669629e-01 -1.3503089143926778e-01 -8.6681068332535394e-01
154 -9.3650286327327392e-01 -9.6656114543063665e-01 4.1606274953521238e-01
126 -1.1175557440336124e+00 1.9489364494799575e+00 -1.4292257003474755e+00
146 1.2191337822487945e-01 -1.0113053143589985e+00 -4.3394088828755706e-01
37 6.7899530533381891e-01 -2.9194339340482611e-01 -1.4983184796485460e-01
172 -3.7280447509117376e-01 -3.1319123860658715e-01 -1.0742499443072151e+00
171 -1.1744739175667067e+00 2.9454917896647959e-01 -2.1415584103792754e-01
28 -2.4271929986189342e-01 4.0459742874191218e-01 3.1405075048605471e-02
91 1.3005466954478324e+00 -9.9703457194114753e-01 -1.1954364383565106e+00
162 3.5780669215145555e-01 -7.5602645055948658e-01 -1.6774535528631895e-01
151 -1.1134099603149239e+00 1.1650159840032452e+00 -4.6014988513207616e-01
90 -5.2106213260488654e-01 1.2450454003511338e+00 -9.3039226252291340e-01
95 -7.7606644087452159e-01 -1.0316297967044428e+00 -1.4565429296097607e+00
98 -1.4137992747291450e-01 -8.7049810625044932e-01 -9.8429449382513412e-01
153 1.8963159390697018e-01 -5.3409873752954662e-01 -2.9538083323619779e-01
131 8.7115569140338001e-01 9.5871379940971724e-01 -3.7298135166568241e-02
35 -1.1325558764261050e+00 -1.7524949716388760e-01 9.2864627792868670e-01
113 4.7131072316895489e-01 1.4102038383518887e+00 1.1119683136528089e+00
152 8.7488998433904744e-02 -3.8459583118483187e-01 1.6962071120563049e-01
88 -2.4209436174557317e+00 1.4737345874325092e-01 -1.0997999284347135e+00
116 -3.4830596797747254e-01 -3.6375945352271744e-01 2.7065397118308776e-01
150 -1.1227784517298087e+00 2.2794987269753433e-01 1.7022195886182412e-01
158 -2.0384615046609236e+00 8.9412511087452673e-01 4.0865560294506609e-02
159 1.8557406712239000e-01 7.3158338559518077e-01 1.3172839649873227e+00
18 2.6457785617318954e-02 7.8069089988087947e-01 -7.0392064137785065e-02
105 -9.6974870519757528e-01 1.5073155587291305e+00 -1.9440365587358088e+00
157 -3.0517981581986758e-01 -6.4234405828527560e-02 -1.0935761158957580e+00
100 -1.5358986278270468e+00 2.8906992372457646e-01 3.6044047394680134e-01
170 -6.2502873402341763e-01 -6.1267883803452194e-01 -2.0920221414219125e+00
104 3.5983212900769390e-01 9.9964882579655856e-01 2.0416149357897955e+00
94 -1.4276980213135188e-01 -1.2969900515135606e+00 1.0230872664110000e+00
169 -2.1007610539855415e-01 2.0965927620525968e+00 1.7334986038799236e+00
92 -3.4628918232441253e-01 -8.7904901916516054e-01 -9.6159705213974978e-01
93 -5.9894479373796938e-02 8.4498741234217978e-01 2.2496351028100214e+00
149 -3.0168367673293339e-01 -9.8656540642573876e-01 -1.2801675426903745e+00
109 1.0037692639263325e+00 4.2521285995238062e-01 -2.7905380626897367e+00
168 -1.4944223190152521e+00 -8.2220074291436440e-01 1.2886376964229085e-01
112 -1.0454486602550128e+00 -2.9166740184170609e-01 -1.9648239882490341e+00
36 2.4466543635019355e-01 2.0557650223630772e+00 -8.1861872470264441e-01
25 -4.9298650497366409e-01 -2.6831767032752293e-02 -1.5711344466255477e+00
114 -2.2150534796274761e+00 -1.1576271908083871e+00 8.2994460709196094e-01
97 -1.7233714975832704e+00 -3.0932085947327570e-01 1.0909870926773737e+00
99 -1.3506029910373336e+00 -3.0234920924996656e-01 -1.0882406984039534e+00
115 -1.4822266392465635e+00 -1.0430227128193486e+00 -1.0756429301835754e-01
160 -1.8082970223123471e-01 1.7151454102598958e+00 -1.1355606762405572e+00
106 -3.6144003284347936e-01 -1.8745905695079426e+00 -5.1968062596999554e-01
107 3.6156885384060966e-01 4.9313434285281327e-01 -6.7179698225443762e-01
108 4.9489432299591241e-01 5.9326531575316543e-01 -9.5087528884060779e-01
167 1.9638860720803542e-01 2.4960738405442745e-01 -6.4175403402654507e-01
166 -1.0917606193632254e+00 9.5870942592755681e-01 -8.7053836154270903e-01
110 -4.2809519819210112e-01 4.5396321881385610e-01 -1.0192979864558593e-01
165 3.9451512656095533e-02 2.4382170498887081e+00 9.9163019050265189e-01
111 -2.3284384181163570e-01 -2.5851519081843105e-01 9.7913665592822730e-01
21 1.5023680505779964e+00 -8.3574160942576370e-01 5.9728462024641105e-01
26 6.4002007680867756e-01 1.7201300902325405e+00 -3.0437339114180534e-02
22 1.2047037574226691e+00 -1.1311168595342107e+00 5.0939060867427544e-01
117 1.6633780416670219e+00 4.6162057160668590e-01 -8.8390178956301091e-01
96 3.0899933075326119e-01 -5.1929927232793360e-01 -3.2642451913922305e-01
17 -3.3595392498954479e-01 2.8535945384357075e-01 2.4298841552517345e+00
148 5.1068842223964994e-01 -9.2675751865858658e-01 4.1040065284439720e-01
23 1.2876378768167123e+00 4.0269696105362206e-02 -3.2678061425014615e+00
29 -1.3096617001268562e+00 -3.8197384372817683e-01 -4.6651110134498552e-01
130 -3.0716315283662121e-01 5.3217142924739269e-01 9.0932538792584239e-01