LAMMPS data file via write_data, version 12 Dec 2018, timestep = 20000

100 atoms
1 atom types
100 bonds
1 bond types
100 angles
1 angle types

-2.5000000000000000e+01 2.5000000000000000e+01 xlo xhi
-2.5000000000000000e+01 2.5000000000000000e+01 ylo yhi
-2.5000000000000000e+01 2.5000000000000000e+01 zlo zhi

Masses

1 1

Atoms # angle

82 1 1 -3.0187580715834477e+00 -2.6215973010663096e+00 -4.2524865883227392e+00 0 0 0
79 1 1 -1.4952700791645595e+00 -3.2966401645160697e+00 -3.1109399020611139e+00 0 0 0
81 1 1 -2.7765593499741987e+00 -3.5594626778394671e+00 -4.1216241539230287e+00 0 0 0
80 1 1 -2.1594984172946554e+00 -3.9266157115656122e+00 -3.3856588740561833e+00 0 0 0
84 1 1 -4.9356653346075863e+00 -2.6581912584784035e+00 -4.0966015140315699e+00 0 0 0
78 1 1 -2.0303345156167043e+00 -2.6623877460167371e+00 -2.6044330451807096e+00 0 0 0
83 1 1 -3.9785711158435646e+00 -2.7819840994942364e+00 -4.2596971544433364e+00 0 0 0
88 1 1 -6.1197759038242738e+00 -4.1570419220154226e-01 -2.5924088064320849e+00 0 0 0
77 1 1 -1.6437938921424562e+00 -1.8021219247497040e+00 -2.5834470774321288e+00 0 0 0
23 1 1 -4.0778027327061288e+00 -6.6698508712809024e-01 -2.8417531012932353e+00 0 0 0
19 1 1 -1.6090260469177311e+00 -7.4471668905439603e-01 -4.0305190592342249e-01 0 0 0
85 1 1 -5.8201547682800872e+00 -2.5138303753280105e+00 -4.3969613348846854e+00 0 0 0
20 1 1 -2.3942576622428202e+00 -6.0233374091389968e-01 -9.6363810825732432e-01 0 0 0
76 1 1 -1.5673864455908588e+00 -8.6947722683009365e-01 -2.6523437756744501e+00 0 0 0
21 1 1 -3.3338822604216780e+00 -9.3882163171805599e-01 -1.1836184287743334e+00 0 0 0
86 1 1 -6.1016917794236942e+00 -1.8460976106797113e+00 -3.7503686166791375e+00 0 0 0
24 1 1 -3.6848940257395038e+00 -5.2267596767995542e-02 -3.4744679751398686e+00 0 0 0
87 1 1 -6.1893923049222686e+00 -1.1316817777013837e+00 -3.1590321535310397e+00 0 0 0
22 1 1 -3.5266169728877421e+00 -9.2154883349434746e-01 -2.0933910938071865e+00 0 0 0
75 1 1 -2.0893098566109942e+00 -5.7679217338880241e-02 -2.3869463459432843e+00 0 0 0
89 1 1 -5.1667612638102733e+00 -5.3959937092240762e-01 -2.2403704500261314e+00 0 0 0
25 1 1 -4.1377345437864710e+00 -3.4869484645597937e-01 -4.2358544886411265e+00 0 0 0
18 1 1 -1.3138685583024472e+00 -1.2284878888363313e+00 4.4330342771089598e-01 0 0 0
17 1 1 -1.5463372468157719e+00 -4.9878213548314598e-01 9.7830570006223139e-01 0 0 0
29 1 1 -6.2211389738696949e+00 1.3285243691082320e+00 -3.7714009240978732e+00 0 0 0
30 1 1 -5.5867189796297616e+00 2.0229929671720828e+00 -4.0071399473697813e+00 0 0 0
26 1 1 -4.7731952009564758e+00 1.3766833457996153e-01 -4.8521872852814187e+00 0 0 0
50 1 1 -2.9867510708456746e-01 4.1290959064540536e+00 -1.0832595738866024e+00 0 0 0
73 1 1 -2.0648362500014055e+00 1.6187743177659815e+00 -2.9125928549565283e+00 0 0 0
27 1 1 -5.2047175291390531e+00 9.7885181468945281e-01 -5.0225226194888863e+00 0 0 0
28 1 1 -5.4711561590219384e+00 8.9920290170461115e-01 -4.1014080685628143e+00 0 0 0
31 1 1 -4.8708357650054053e+00 2.6210538533770973e+00 -4.1137540253084159e+00 0 0 0
98 1 1 -6.0969112183448526e-01 2.3892347282889079e+00 -3.4252188346214014e+00 0 0 0
71 1 1 -3.4875819738334126e+00 2.1688335693958227e+00 -2.4333428368513186e+00 0 0 0
92 1 1 -2.9142821968610337e+00 9.7997047194269782e-01 -2.8346820545633440e+00 0 0 0
96 1 1 -1.4505210359747900e+00 1.6825740530580342e+00 -4.9070857857015131e+00 0 0 0
32 1 1 -5.1702127384021317e+00 2.9511955885374190e+00 -3.2008711293634784e+00 0 0 0
94 1 1 -2.8629332614007303e+00 6.6930718078584273e-01 -4.6858560295922285e+00 0 0 0
95 1 1 -2.1880448037298748e+00 1.2835859621282977e+00 -4.4916793677472562e+00 0 0 0
36 1 1 -5.2859400273782038e+00 2.2325872149517587e+00 -1.4770841153900032e+00 0 0 0
70 1 1 -4.0286533591137133e+00 2.9618245259806844e+00 -2.2604815811394001e+00 0 0 0
74 1 1 -1.8855219862790533e+00 6.8991581479813524e-01 -2.9333097354285016e+00 0 0 0
90 1 1 -4.4935959417775155e+00 1.8639029637699006e-01 -2.3845581952893560e+00 0 0 0
91 1 1 -3.8103131400013606e+00 7.9630533201112519e-01 -2.8394921498276919e+00 0 0 0
93 1 1 -3.0009338236757643e+00 9.3102393686871476e-01 -3.7858141079935708e+00 0 0 0
68 1 1 -3.7856472227932394e+00 3.6565528944391250e+00 -7.1478896564315297e-01 0 0 0
69 1 1 -3.4284804199124714e+00 3.4718043152695754e+00 -1.5977740289173088e+00 0 0 0
67 1 1 -3.1192486534238819e+00 3.4813679296466495e+00 -4.9394331356695423e-02 0 0 0
97 1 1 -1.0840028366625238e+00 2.0920890536832264e+00 -4.1526521089715649e+00 0 0 0
34 1 1 -6.5858872597490032e+00 2.8143722726377303e+00 -2.1143389236504002e+00 0 0 0
33 1 1 -5.9583010184914231e+00 3.2041217130581603e+00 -2.7956885205702058e+00 0 0 0
42 1 1 -1.1471434024410279e+00 1.7192056424887669e+00 -1.4119187879822954e+00 0 0 0
52 1 1 -1.0252144924338689e+00 3.0795299851058520e+00 -5.7725280447910965e-01 0 0 0
72 1 1 -2.6669508684114192e+00 1.7860902504470078e+00 -2.1115972183187148e+00 0 0 0
39 1 1 -2.9922826827932290e+00 1.8918888628865693e+00 -3.5200973341295094e-01 0 0 0
53 1 1 -6.7600625490857613e-01 2.2172427677656081e+00 -2.2969413061301924e-01 0 0 0
40 1 1 -2.8266711283063937e+00 1.0471455207651856e+00 -8.6428099966916228e-01 0 0 0
35 1 1 -5.9005908340555200e+00 2.9930494328726089e+00 -1.3632179391862833e+00 0 0 0
38 1 1 -3.9620631008542535e+00 2.0015192457432014e+00 -3.2323328305589216e-01 0 0 0
41 1 1 -2.0780487063921376e+00 1.6218548563815112e+00 -9.9885866638302490e-01 0 0 0
51 1 1 -8.0920157566869655e-01 3.4263663742127251e+00 -1.4953638429365750e+00 0 0 0
43 1 1 -4.0598672107766459e-01 1.3125581105624535e+00 -1.9433562832793847e+00 0 0 0
37 1 1 -4.4149733936359983e+00 1.9362005561522995e+00 -1.2208172353163480e+00 0 0 0
100 1 1 -1.5550737323892905e-01 2.5205502849261223e+00 -2.1512367811429769e+00 0 0 0
60 1 1 -3.1754063967871882e-01 2.9954751375246222e+00 4.0800531637712245e+00 0 0 0
15 1 1 -1.6988264005596636e+00 5.5378643761206015e-01 1.4202208615577341e+00 0 0 0
13 1 1 -1.7753970296405015e+00 7.7235177600318061e-01 2.9283831452629236e+00 0 0 0
63 1 1 -2.1850845515826425e+00 4.0138175507865590e+00 2.5886451773590848e+00 0 0 0
8 1 1 -7.8786146693676529e-01 3.1118578167028597e+00 1.2977113712894603e+00 0 0 0
64 1 1 -2.2536611450105433e+00 4.2998759662220865e+00 1.6347137543585466e+00 0 0 0
14 1 1 -2.0072792459964623e+00 1.3028381942249739e-01 2.2428513926148965e+00 0 0 0
9 1 1 -9.9733209759682762e-01 2.8902574592249728e+00 2.2368961007622712e+00 0 0 0
61 1 1 -1.2443896158254950e+00 3.2124006638570903e+00 3.9086178484749881e+00 0 0 0
62 1 1 -1.5782050480779022e+00 3.8532334273284921e+00 3.3136916959860470e+00 0 0 0
10 1 1 -1.6742894714855527e+00 2.3155441616350627e+00 2.7269696659082650e+00 0 0 0
11 1 1 -1.4811773064416436e+00 1.4993075417027619e+00 2.2588151734844253e+00 0 0 0
59 1 1 -7.2515968655044172e-01 2.4345190100716847e+00 3.4567646152214606e+00 0 0 0
12 1 1 -2.3774899390665594e+00 1.4496277027886821e+00 2.6489020536182131e+00 0 0 0
65 1 1 -3.1152424527532503e+00 3.9983708324288005e+00 1.3256039659303087e+00 0 0 0
54 1 1 -3.0232046908947574e-01 2.4638850604014602e+00 5.7295951508086684e-01 0 0 0
66 1 1 -3.1417469396294906e+00 4.3555386582673954e+00 4.1245407861502908e-01 0 0 0
58 1 1 -8.3724929398556192e-03 2.7286965367968663e+00 2.8845429165460077e+00 0 0 0
7 1 1 -2.4714408729671902e-01 3.9147846280312049e+00 1.0725957922309546e+00 0 0 0
16 1 1 -1.4808499270568680e+00 3.4688364704891034e-01 5.5681595118290195e-01 0 0 0
48 1 1 7.3579703293769338e-01 3.5050596605427611e+00 -2.4243967942482536e+00 0 0 0
1 1 1 4.9597452930107511e-01 2.6918588587883150e+00 -1.4280200841689838e+00 0 0 0
49 1 1 4.1725478949652062e-01 4.0580009823962762e+00 -1.7027354545775333e+00 0 0 0
46 1 1 1.3602663326137587e+00 1.9091385749194290e+00 -1.7789815721002542e+00 0 0 0
47 1 1 1.3898960770537390e+00 2.8663674750929995e+00 -2.0221886281600061e+00 0 0 0
2 1 1 1.1156589725887456e+00 3.1708614169380458e+00 -8.5204811967799998e-01 0 0 0
45 1 1 1.0045565791325519e+00 1.7499348329800133e+00 -2.6756007777527633e+00 0 0 0
3 1 1 1.5655763777527343e+00 3.8556865901459196e+00 -2.5152235915956450e-01 0 0 0
44 1 1 2.0345748875102371e-01 1.1997225920042542e+00 -2.6475149809478413e+00 0 0 0
99 1 1 1.7707203013110567e-01 2.7616173664015125e+00 -3.0066254294878552e+00 0 0 0
4 1 1 1.5206779145809628e+00 3.7236392644007781e+00 7.1693978359485755e-01 0 0 0
6 1 1 4.5462643885368059e-01 3.4217520206730287e+00 1.4094453872121737e+00 0 0 0
5 1 1 1.4211426046290301e+00 3.5481368546090746e+00 1.6604309196182319e+00 0 0 0
57 1 1 7.6665976318186912e-01 2.1803954447138034e+00 2.9010836260068897e+00 0 0 0
56 1 1 9.2440722946095816e-02 1.8679264542576990e+00 2.3480469860304281e+00 0 0 0
55 1 1 5.3848093133112465e-02 2.2528773783471214e+00 1.4404533245398423e+00 0 0 0

Velocities

82 -1.1917145235910418e+00 1.6683068487184520e+00 3.4183141869411832e-01
79 -1.7733321345058293e+00 2.3216055028641994e-01 9.0266677239010185e-01
81 -6.7776133775627478e-01 -1.8696066433852374e+00 1.1446589051907069e-01
80 -1.3074938917692219e-01 1.6062812842211736e+00 2.1758114708645537e-01
84 1.2961580103480808e+00 5.6304974369667959e-01 -9.4658684111739710e-01
78 4.9712453564684550e-01 -1.6008084137589538e+00 -3.8164466322093771e-01
83 8.5716685255468206e-01 5.8030640250138277e-01 -1.8100619048415683e+00
88 5.9805795200167100e-01 7.0045925580669799e-01 -1.0363770475492042e+00
77 8.4312460465316696e-01 -1.0344122489098826e+00 1.3087308418087999e+00
23 -7.7711869230327246e-01 -1.0025511218803866e+00 4.8577430455240694e-01
19 5.8483422582755862e-01 5.3068370803908382e-01 2.8399196116405828e-01
85 -2.3064536746162045e+00 1.4461560058891407e+00 -1.2242903883648730e+00
20 9.7303545381275058e-02 9.5815117462151023e-01 -1.1286753575782404e+00
76 -2.2157536857252897e+00 2.6615390641391634e-01 -2.0500926595177207e+00
21 1.3384423507873802e+00 -2.8229541779049816e-01 -2.0811100035538024e-01
86 -1.5181831719186458e+00 -1.7234190744192883e+00 8.0337026930157196e-01
24 -6.2975808245083542e-01 6.8681290334755563e-01 -4.6096059019760321e-01
87 -9.5264583055999763e-01 7.4270220684446353e-01 -5.3688782881077302e-01
22 3.5741541523845882e-01 -4.3207532808133650e-02 8.4310404505078906e-01
75 7.1287845782079950e-01 7.1410574480496869e-03 -2.6834443738050817e-01
89 8.1702017198881954e-02 2.0468601553134058e-01 -7.2339306889934796e-01
25 -2.5660405587352064e-01 1.8365865806108614e-01 -1.0352322007863295e+00
18 3.4967501247922184e-01 -6.8622388006185520e-01 1.1588410125528279e+00
17 2.3310809452488952e+00 9.8502271605063210e-02 -6.0517895414327705e-01
29 1.6956804492517572e+00 1.2930892461160644e+00 1.6844615852697575e+00
30 1.2842921736586990e+00 -3.9455850673093729e-01 -6.4296535307267322e-01
26 3.1745193502445734e-01 2.4803405359657754e-01 -2.1068460590481133e-01
50 8.5324646897175715e-01 1.5500861478449846e-01 1.5937760632535539e-01
73 -1.1858461810415200e+00 1.4722847646186239e+00 3.8943919615401923e-01
27 6.4152224383667378e-01 -6.9003304709451252e-01 6.1722819555108788e-01
28 -5.2475422775348213e-01 -6.1506174072197617e-01 5.4411558065053756e-01
31 1.5856165623391001e+00 -3.6055761382729323e-01 -9.6986714935622564e-01
98 3.8814814449759844e-02 3.0791267153895618e-01 -1.3018347245826225e+00
71 -2.3173537699298558e-01 -1.7677660217727129e+00 -7.8682487283458380e-01
92 -3.9327973900850982e-01 -1.2345368311147206e-01 1.3958632730759750e+00
96 -2.3279189931514885e-02 1.0612635591912514e+00 1.5142036278161797e-03
32 -1.9337354541579466e+00 -1.5552062626322256e+00 -1.0741089751989281e+00
94 5.6173911703052437e-01 2.3555216851865968e+00 -2.3020295162779014e+00
95 4.6421546304214900e-01 -8.3498486735196231e-01 -1.0454399409159671e+00
36 2.4986768969889517e+00 2.6317482254344354e-02 -1.8259813780705825e+00
70 1.4779720655972808e+00 -9.2410562836693178e-01 -2.2856633732488113e-02
74 -8.4412331023699716e-01 -5.6778432132237666e-01 -9.3624122871668913e-01
90 -2.5725299875553054e-01 -4.6855276507834864e-01 6.4509331166406975e-02
91 1.2152523152288350e+00 -2.3828971646771033e-01 3.4253965516392273e-02
93 1.2565882475000669e+00 -8.7855692419462306e-01 1.9614776749925857e+00
68 -7.6125708461855635e-01 6.9090712627074602e-01 2.3717997257806858e-01
69 2.6805546824288706e-02 -6.6343995814173218e-01 7.4958132647535503e-01
67 1.4818157057527329e-01 -6.1294223646690116e-01 3.7596724041079727e-01
97 -1.4630695801909430e+00 -7.6790070364724028e-01 -6.3962501092692903e-01
34 -6.6497716812812668e-01 -4.3042196572385399e-01 2.0436454739021737e+00
33 -7.7543294432469823e-01 -6.0436498901880209e-01 3.0891573960530616e-01
42 -1.1888012520051923e+00 1.5515109752820229e+00 1.3363639990922277e-01
52 4.4089147960976838e-01 1.5510296447235505e+00 -1.2777709485312966e-01
72 -2.0005377080335673e+00 5.2757627044056243e-01 3.0982194532223728e-02
39 6.6583636568187943e-01 -1.2485039025491438e+00 -1.0433387939288712e+00
53 -2.7973642447316183e-01 -4.0406854771118089e-01 3.4299908232423498e-01
40 9.0187046301174145e-01 2.0586119625226376e+00 -7.8469992769936248e-01
35 9.9525313525643699e-01 8.7643672796185401e-01 -3.5474386175268802e-01
38 2.3610367099065810e+00 -3.6697658667896699e-01 -1.3664273023799003e-01
41 -8.2947462306923148e-01 -7.6652330434290672e-01 -1.2030916845591813e+00
51 -6.1188318783605566e-01 1.0680741141264170e+00 5.0326676967750072e-01
43 -3.9283903971488537e-01 -1.3390197169607885e+00 -9.6580678205052295e-01
37 -4.1014601797494810e-01 7.1317759867796171e-01 -4.2266281764298963e-01
100 -1.4244172721421802e+00 -1.1661478784115883e-01 -6.2403645078831865e-02
60 8.8913092919446424e-01 8.5979326966414560e-01 -1.1042744824665676e+00
15 1.5345257647420931e+00 -1.1842200807573107e+00 6.8667084318150384e-01
13 -2.5296525560611538e-01 9.2947265491309039e-01 1.1724283354309692e+00
63 -8.8257679039555531e-02 -7.3814236357941743e-01 1.0894987686634718e+00
8 8.3629880771427345e-01 -1.8547643799256013e+00 1.0533176567351873e-01
64 -1.2392569813800525e-01 2.6276101911628604e+00 2.7137494843325227e-01
14 -4.7890774618834731e-01 -1.0302085818943714e+00 2.0935606795448463e+00
9 3.2984805689885821e-02 4.9230471560202427e-01 -1.7642114276510437e-01
61 1.1189956757807105e+00 5.6975849209615825e-01 1.6148241733677993e-01
62 -8.4231149469082944e-01 -9.3882733508916150e-01 7.2848871776099755e-01
10 -2.8704012938089249e+00 7.1419052026283925e-01 -1.6315381702607299e+00
11 -1.7475985064033717e-01 -1.4275259098933986e+00 3.6762460238555189e-01
59 -4.6557961779996365e-01 -2.0710145937619626e-01 3.1404954408022545e-01
12 1.4690435029966084e-01 -1.4993629523861705e+00 1.8469440191675144e+00
65 -3.0910428327538336e-01 6.5989113681290645e-01 9.2549986216891478e-01
54 -1.4744989701293960e+00 4.5602171815684928e-01 1.4288573662282678e+00
66 1.3677067362928357e+00 -9.5168512912450320e-02 7.4754985684839326e-01
58 1.4002895464917360e+00 7.9856280173288074e-01 1.0285483707819914e+00
7 2.1069114106738110e-01 7.8523364159338871e-01 -4.0523024718696876e-01
16 -1.0516453070241647e+00 -3.8706885661529022e-01 9.0145819481972422e-01
48 -1.9635253982884582e-01 9.2950535218978669e-01 -1.6167459195241747e+00
1 8.2318981725098239e-01 -2.4226319582020800e-01 -6.4611296140460051e-01
49 -1.2937055818416225e+00 4.8826634982375078e-01 1.2455491702397246e+00
46 2.0536507423790804e-01 -8.8646974963059233e-01 7.7776818562807826e-02
47 1.0144956149692255e+00 1.1614919269043660e+00 1.2497997325130010e+00
2 1.0127318079174457e+00 4.9380403585157467e-01 -4.2245825178453500e-01
45 -6.6621652171051438e-01 -2.0166131253048891e+00 -8.1477289962073596e-01
3 -3.0074508486280860e-01 1.4255265702716127e+00 -1.0830232474908723e+00
44 8.0086522251504144e-01 2.0296218550515011e-01 -9.9943785664537599e-02
99 -4.3605921337334697e-01 3.0822036014207410e-01 -4.5538807939851467e-01
4 6.1776299893325914e-01 7.7402042655834857e-01 1.6635690168012496e-01
6 3.1260977473051199e-01 6.8760545356359204e-01 -1.5752424885393641e+00
5 6.8043477064330737e-01 -7.4854833058173820e-01 4.5732793541183217e-02
57 1.4582976903802178e+00 -3.5991660661997138e-01 -9.4451208775680107e-01
56 8.1888487052642206e-02 8.5683475770474238e-01 1.5999479112593190e-01
55 3.8790986513988374e-01 -8.8783784809223287e-01 2.8446147386449938e-01

Bonds

1 1 82 83
2 1 79 80
3 1 81 82
4 1 80 81
5 1 84 85
6 1 78 79
7 1 83 84
8 1 88 89
9 1 77 78
10 1 23 24
11 1 19 20
12 1 85 86
13 1 20 21
14 1 76 77
15 1 21 22
16 1 86 87
17 1 24 25
18 1 87 88
19 1 22 23
20 1 75 76
21 1 89 90
22 1 25 26
23 1 18 19
24 1 17 18
25 1 29 30
26 1 30 31
27 1 26 27
28 1 50 51
29 1 73 74
30 1 27 28
31 1 28 29
32 1 31 32
33 1 98 99
34 1 71 72
35 1 92 93
36 1 96 97
37 1 32 33
38 1 94 95
39 1 95 96
40 1 36 37
41 1 70 71
42 1 74 75
43 1 90 91
44 1 91 92
45 1 93 94
46 1 68 69
47 1 69 70
48 1 67 68
49 1 97 98
50 1 34 35
51 1 33 34
52 1 42 43
53 1 52 53
54 1 72 73
55 1 39 40
56 1 53 54
57 1 40 41
58 1 35 36
59 1 38 39
60 1 41 42
61 1 51 52
62 1 43 44
63 1 37 38
64 1 100 1
65 1 60 61
66 1 15 16
67 1 13 14
68 1 63 64
69 1 8 9
70 1 64 65
71 1 14 15
72 1 9 10
73 1 61 62
74 1 62 63
75 1 10 11
76 1 11 12
77 1 59 60
78 1 12 13
79 1 65 66
80 1 54 55
81 1 66 67
82 1 58 59
83 1 7 8
84 1 16 17
85 1 48 49
86 1 1 2
87 1 49 50
88 1 46 47
89 1 47 48
90 1 2 3
91 1 45 46
92 1 3 4
93 1 44 45
94 1 99 100
95 1 4 5
96 1 6 7
97 1 5 6
98 1 57 58
99 1 56 57
100 1 55 56

Angles

1 1 81 82 83
2 1 78 79 80
3 1 80 81 82
4 1 79 80 81
5 1 83 84 85
6 1 77 78 79
7 1 82 83 84
8 1 87 88 89
9 1 76 77 78
10 1 22 23 24
11 1 18 19 20
12 1 84 85 86
13 1 19 20 21
14 1 75 76 77
15 1 20 21 22
16 1 85 86 87
17 1 23 24 25
18 1 86 87 88
19 1 21 22 23
20 1 74 75 76
21 1 88 89 90
22 1 24 25 26
23 1 17 18 19
24 1 16 17 18
25 1 28 29 30
26 1 29 30 31
27 1 25 26 27
28 1 49 50 51
29 1 72 73 74
30 1 26 27 28
31 1 27 28 29
32 1 30 31 32
33 1 97 98 99
34 1 70 71 72
35 1 91 92 93
36 1 95 96 97
37 1 31 32 33
38 1 93 94 95
39 1 94 95 96
40 1 35 36 37
41 1 69 70 71
42 1 73 74 75
43 1 89 90 91
44 1 90 91 92
45 1 92 93 94
46 1 67 68 69
47 1 68 69 70
48 1 66 67 68
49 1 96 97 98
50 1 33 34 35
51 1 32 33 34
52 1 41 42 43
53 1 51 52 53
54 1 71 72 73
55 1 38 39 40
56 1 52 53 54
57 1 39 40 41
58 1 34 35 36
59 1 37 38 39
60 1 40 41 42
61 1 50 51 52
62 1 42 43 44
63 1 36 37 38
64 1 99 100 1
65 1 59 60 61
66 1 14 15 16
67 1 12 13 14
68 1 62 63 64
69 1 7 8 9
70 1 63 64 65
71 1 13 14 15
72 1 8 9 10
73 1 60 61 62
74 1 61 62 63
75 1 9 10 11
76 1 10 11 12
77 1 58 59 60
78 1 11 12 13
79 1 64 65 66
80 1 53 54 55
81 1 65 66 67
82 1 57 58 59
83 1 6 7 8
84 1 15 16 17
85 1 47 48 49
86 1 100 1 2
87 1 48 49 50
88 1 45 46 47
89 1 46 47 48
90 1 1 2 3
91 1 44 45 46
92 1 2 3 4
93 1 43 44 45
94 1 98 99 100
95 1 3 4 5
96 1 5 6 7
97 1 4 5 6
98 1 56 57 58
99 1 55 56 57
100 1 54 55 56
