LAMMPS data file via write_data, version 12 Dec 2018, timestep = 20000

100 atoms
1 atom types
100 bonds
1 bond types
100 angles
1 angle types

-2.5000000000000000e+01 2.5000000000000000e+01 xlo xhi
-2.5000000000000000e+01 2.5000000000000000e+01 ylo yhi
-2.5000000000000000e+01 2.5000000000000000e+01 zlo zhi

Masses

1 1

Atoms # angle

25 1 1 -1.9991450816744680e-01 -3.9995535706317681e-01 -1.3228677167058973e+00 0 0 0
26 1 1 -1.1057796287733848e+00 -3.0443025011635744e-01 -1.4867865044356994e+00 0 0 0
98 1 1 -7.3548239440826080e-01 -2.8177039123306526e+00 -2.1974755145947866e+00 0 0 0
94 1 1 -2.2260016306328483e+00 -3.6623723089996008e-01 -3.5597506685422480e+00 0 0 0
97 1 1 -1.3615395622895927e+00 -2.1161829124168290e+00 -2.1374482960333689e+00 0 0 0
95 1 1 -1.8937936707370320e+00 -1.2658970301194852e+00 -3.3492664613423360e+00 0 0 0
93 1 1 -2.6294191910479765e+00 -2.2959871906932952e-01 -2.7401750066414574e+00 0 0 0
96 1 1 -1.8608548003815106e+00 -2.1494802609501353e+00 -2.9689426703888198e+00 0 0 0
99 1 1 -9.1296879239042436e-02 -2.2356674442041991e+00 -1.8134895770082076e+00 0 0 0
32 1 1 -2.6405545454047843e+00 2.0567275477236096e+00 -4.5970237999110601e+00 0 0 0
34 1 1 -2.9695281224752326e+00 3.0010507315001473e+00 -3.4305461143780511e+00 0 0 0
33 1 1 -3.3174825903622778e+00 2.2213915877670352e+00 -3.8758128102235685e+00 0 0 0
31 1 1 -1.8367492526778102e+00 2.4002844174212492e+00 -4.1295533593427773e+00 0 0 0
85 1 1 -1.0558054830550769e+00 4.0516384140606281e+00 -4.1785341960599780e+00 0 0 0
30 1 1 -1.3984215939236799e+00 1.5011719243824422e+00 -3.9783760730262361e+00 0 0 0
35 1 1 -3.1130212379398383e+00 3.9170276301127691e+00 -3.2094665687547437e+00 0 0 0
91 1 1 -3.2753651595878153e+00 8.5051994390793750e-01 -1.9427276792981978e+00 0 0 0
92 1 1 -2.6603386037873342e+00 7.0667663315381424e-01 -2.7397742976903299e+00 0 0 0
89 1 1 -2.2395931225928822e+00 1.9582641407290302e+00 -2.1869551353636374e+00 0 0 0
88 1 1 -1.8298660246166256e+00 2.7223467952694405e+00 -2.6143772416461788e+00 0 0 0
86 1 1 -1.2162354454976274e+00 3.6102821420317537e+00 -3.3952164756805741e+00 0 0 0
36 1 1 -2.7144404136474578e+00 3.5029973888896895e+00 -2.3777871021979093e+00 0 0 0
37 1 1 -2.0367666331794378e+00 3.9850090732717525e+00 -2.8114176679607406e+00 0 0 0
84 1 1 -1.4883009919029200e+00 4.5762483737239581e+00 -4.8360315931661582e+00 0 0 0
87 1 1 -1.0031311973944381e+00 2.7001416345180247e+00 -3.0867199899334259e+00 0 0 0
29 1 1 -1.6945745403833596e+00 8.3309024141153620e-01 -3.3722906020557613e+00 0 0 0
90 1 1 -3.2336278942334209e+00 1.7158868917497896e+00 -2.4150038070083797e+00 0 0 0
80 1 1 -9.7841822080670726e-01 7.6033958944362752e+00 -3.7139634737652587e+00 0 0 0
83 1 1 -7.3864453348569259e-01 5.0911404762827059e+00 -5.1401993923782454e+00 0 0 0
81 1 1 -9.9001481838304006e-01 6.9203724434797884e+00 -4.4087362097318588e+00 0 0 0
38 1 1 -1.7689597629475269e+00 4.8302919077717501e+00 -2.3967080936745924e+00 0 0 0
79 1 1 -1.4869057942701025e-01 7.8306391732311811e+00 -3.1153723235518074e+00 0 0 0
82 1 1 -9.8482906001207504e-01 5.9915508201578893e+00 -4.7425062022597730e+00 0 0 0
39 1 1 -9.0911757805049731e-01 4.6201955449410717e+00 -2.7460661379903506e+00 0 0 0
28 1 1 -1.1878648282997042e+00 7.8122230341495447e-01 -2.4897318046501158e+00 0 0 0
27 1 1 -1.6118915432606937e+00 4.2590139069854815e-01 -1.7150713477247368e+00 0 0 0
51 1 1 -7.6258009961388817e-02 1.3717425974940980e+00 -6.9411209856368866e-02 0 0 0
2 1 1 1.7796060272437155e+00 -1.1274031542047478e+00 -3.4187517835245824e+00 0 0 0
3 1 1 2.7168406187056018e+00 -9.5587380939600108e-01 -3.3277974306361569e+00 0 0 0
59 1 1 2.5181471861202351e+00 -1.0416381107404893e+00 -8.1234262406927338e-01 0 0 0
4 1 1 3.5368967891247802e+00 -1.0777947386099425e+00 -3.7063755655173782e+00 0 0 0
1 1 1 1.3701927532245919e+00 -1.6493274626032117e+00 -2.7530947695620545e+00 0 0 0
100 1 1 5.0013165694911688e-01 -1.9119745907514150e+00 -2.5351289821258596e+00 0 0 0
58 1 1 3.0888781500503506e+00 -1.1801034245127102e+00 -2.6772963479150928e-02 0 0 0
60 1 1 1.6884159269135048e+00 -1.0873479901041567e+00 -1.2023403059713578e+00 0 0 0
5 1 1 3.6010615411915818e+00 -1.2380805623966458e-01 -3.5940653247440753e+00 0 0 0
61 1 1 1.7885896620279920e+00 -1.6891264916933380e-01 -1.4730422532330425e+00 0 0 0
23 1 1 1.2424714913745194e+00 -2.9337499479572904e-01 -6.0029253342334263e-02 0 0 0
24 1 1 5.4657831689253356e-01 -3.8612939321288946e-02 -8.0580066022300945e-01 0 0 0
57 1 1 2.2487842184620090e+00 -1.4768687754038425e+00 3.0774272583645890e-01 0 0 0
56 1 1 1.3811640161258762e+00 -1.2261637308588327e+00 4.0068125149731165e-01 0 0 0
55 1 1 1.5121159701545954e+00 -4.3359564687386476e-01 9.6449829230656969e-01 0 0 0
6 1 1 3.4234333178593204e+00 7.0514756047524729e-01 -4.0750252218655962e+00 0 0 0
67 1 1 1.3027791812178616e-01 2.6978780581953083e+00 -1.6226492209775139e+00 0 0 0
7 1 1 2.4852483682101814e+00 6.8885341364466479e-01 -4.2488668101127587e+00 0 0 0
65 1 1 1.3839622868875388e+00 1.6012255092121326e+00 -1.8843898564143211e+00 0 0 0
8 1 1 1.7091057844478468e+00 8.3282306183619448e-01 -4.8319496004947533e+00 0 0 0
9 1 1 1.7429393714858787e+00 1.3689568222181674e+00 -5.6182694677195375e+00 0 0 0
63 1 1 2.6326902781508408e+00 1.3291426584038726e+00 -1.3163069814890451e+00 0 0 0
46 1 1 2.3214342121321430e+00 1.8618567728818061e+00 -3.2316540881645861e+00 0 0 0
10 1 1 1.6325551741600000e+00 2.2851485542377961e+00 -5.6521393275420229e+00 0 0 0
11 1 1 1.2964701746076452e+00 2.7864366194045713e+00 -4.9278546049355771e+00 0 0 0
78 1 1 6.4136414652050766e-01 7.8391016731111245e+00 -3.7332233851908705e+00 0 0 0
47 1 1 1.5265296648934259e+00 2.3378063141668100e+00 -2.8618257818443258e+00 0 0 0
12 1 1 9.2194464412960031e-01 2.8050856659318621e+00 -4.0690866306822588e+00 0 0 0
45 1 1 2.9581458475013114e+00 2.6154911534238567e+00 -3.1944050496553307e+00 0 0 0
42 1 1 1.6577877820484817e+00 4.1267153253996822e+00 -3.4296644790736219e+00 0 0 0
44 1 1 2.5480544055049204e+00 3.4926666307368475e+00 -3.1203397940738382e+00 0 0 0
43 1 1 2.1234974484064404e+00 3.4284754354494624e+00 -3.9991353096091102e+00 0 0 0
77 1 1 1.0095633569769238e+00 6.9542787694425847e+00 -3.2489511852384432e+00 0 0 0
76 1 1 8.2921664650371318e-01 6.1332749668963764e+00 -2.6532254227258583e+00 0 0 0
74 1 1 4.6003430708386156e-01 5.2348882203845140e+00 -2.2653551859691308e+00 0 0 0
72 1 1 5.7690034392589451e-01 4.0076882316244413e+00 -9.7824897712480918e-01 0 0 0
18 1 1 2.9689450699709208e+00 3.2522733512639079e+00 -8.9819554649753752e-01 0 0 0
41 1 1 7.3272355469288819e-01 4.3152406046969585e+00 -3.4728940740497061e+00 0 0 0
14 1 1 5.3676037951657618e-01 3.1943122871208347e+00 -2.9138530138067185e+00 0 0 0
75 1 1 1.1012231896740872e+00 5.8785693411209392e+00 -1.8069605815759928e+00 0 0 0
16 1 1 1.4378719197464551e+00 3.4238703167012536e+00 -1.3007109770627441e+00 0 0 0
17 1 1 2.1355583070055792e+00 3.6175036406896721e+00 -6.3697790026469314e-01 0 0 0
73 1 1 3.6776309029718157e-01 4.8165868606779796e+00 -1.4121862506393070e+00 0 0 0
13 1 1 9.9650575982368900e-02 3.1624652447787485e+00 -3.8420555181250462e+00 0 0 0
71 1 1 1.2126659994577500e+00 4.3550497339470455e+00 -3.5022405260941858e-01 0 0 0
15 1 1 1.0671610273099263e+00 3.6928601184270571e+00 -2.2087869489434535e+00 0 0 0
50 1 1 3.2994487146712187e-01 1.3663786369826947e+00 -9.5726395840588807e-01 0 0 0
66 1 1 9.2369169874114154e-01 2.1913498646014720e+00 -1.3375799863890958e+00 0 0 0
64 1 1 1.6890039388423117e+00 1.0561391585528770e+00 -1.1523793041632988e+00 0 0 0
48 1 1 5.3971765270058369e-01 2.1722941123146251e+00 -2.4782828386801747e+00 0 0 0
40 1 1 2.9176613710112282e-02 4.4315220966425137e+00 -2.8243857836942152e+00 0 0 0
19 1 1 3.2093320064080997e+00 2.6408424765605463e+00 -2.6027258261590153e-01 0 0 0
49 1 1 2.8857784569463513e-01 1.3561402791075112e+00 -1.9605862650124932e+00 0 0 0
62 1 1 2.5748927976330198e+00 3.9505446687461354e-01 -1.2215697868128566e+00 0 0 0
68 1 1 2.4832347729714563e-01 2.5740883720141521e+00 -6.6370319545289513e-01 0 0 0
21 1 1 2.3430859308605174e+00 1.1440103848053733e+00 5.1488932436955759e-01 0 0 0
20 1 1 2.8424054314993668e+00 1.8909527098083114e+00 1.9800509629458024e-01 0 0 0
69 1 1 5.9234339294825467e-01 2.6859698190119596e+00 2.0826989319825423e-01 0 0 0
70 1 1 8.4007289851006950e-01 3.6203883870768143e+00 1.4253309251692306e-01 0 0 0
52 1 1 1.3969466206518028e-01 1.0193991781249929e+00 8.1720395896569953e-01 0 0 0
53 1 1 3.5024881074797709e-01 7.4516965649111722e-01 1.7434341002130658e+00 0 0 0
22 1 1 1.6501411652812967e+00 5.9547826952098892e-01 1.5518691289731659e-01 0 0 0
54 1 1 8.2087106585908698e-01 6.2142102109970183e-02 1.3242928318324814e+00 0 0 0

Velocities

25 -1.3012045185350107e+00 -1.2024013855819138e-01 2.3569478728769119e-02
26 1.1548001500184395e+00 1.1862445233335139e+00 -3.5733780278783750e-01
98 8.8565313330550455e-01 7.1308992589392384e-01 -8.6753333982414227e-01
94 -1.2486151946251325e+00 1.1452939534740079e+00 -1.9410951238164140e-01
97 1.1006538472004002e-02 -2.2688988883745231e-01 2.3508995435613342e+00
95 5.8491627652268952e-01 1.4425889282241604e+00 -9.6188479246811442e-01
93 -8.4470257423644912e-01 -6.1469520751325457e-01 8.1439681152388887e-01
96 6.6969437376170105e-01 6.5862518188748176e-01 1.2411401861931979e+00
99 4.6223723444940579e-01 -2.3341583040922770e-01 1.9742597794571104e-02
32 1.3926325404407289e+00 -6.8701263283132752e-01 1.6348826535144827e+00
34 -6.9559079112394770e-02 -1.7424350822587862e+00 -8.0484263440892367e-01
33 2.4421527202279125e-01 -3.9276513260538770e-01 -5.1143507903095575e-01
31 -6.3664019433871755e-01 2.6896278134283751e+00 -6.0084477313654627e-01
85 -3.1472364079972681e-01 -7.0136618708292797e-02 2.3765048799622807e-01
30 -1.1230519348106542e+00 -2.8629895621636403e-01 1.4799664737859741e-01
35 -2.5791133322939541e-01 -8.4825890058024223e-01 -3.1519300805128880e-01
91 -5.3962091026400139e-01 -4.3295458652188490e-01 5.3813815129731823e-02
92 6.6534743552266185e-03 4.7227769192398156e-01 -5.5395230501482973e-01
89 2.1828660795947021e+00 -1.2144324403074627e-02 -1.6466695182281668e+00
88 -5.2654098628591928e-01 -7.0142116498285556e-01 1.7012691361092154e+00
86 -2.4064193353935193e-01 -5.1614632440857378e-01 -9.5423194123194366e-01
36 3.1785785569396213e-01 9.0318015103582261e-01 -4.7080238752935555e-01
37 -1.3195426650147848e+00 -7.0452027838416226e-02 -1.3891525503345603e-03
84 1.5177207330596112e+00 -7.7829441851606296e-01 1.1469903484639628e+00
87 -7.3846728333396716e-01 5.2679512445053267e-01 6.5708462624038244e-01
29 -1.0928175958952673e+00 1.1167704291618059e+00 1.0347582228654884e+00
90 6.7339018855690269e-01 -5.9311626728020472e-01 -6.1273139192510895e-01
80 -1.4020045815059161e+00 1.8720847262119447e+00 -1.6170626351008617e+00
83 3.4373484340168137e-01 1.1089980445633714e+00 1.0446528058031088e+00
81 -3.2045525318147206e-01 1.4081783463886730e+00 1.0680305169871456e+00
38 -9.4035719612457713e-01 -3.1518770314042612e+00 -6.0982570120800794e-01
79 1.8351726033683674e-01 -9.5119260816653717e-01 -5.3232754035903079e-02
82 1.1048284746304962e+00 -9.8724749243267451e-01 -4.8902707575941740e-01
39 6.1235450132117686e-01 1.3738817417076440e-01 -7.3443501186500296e-02
28 -3.3877130772583308e-01 1.3938901355054554e+00 2.3790807387539870e-01
27 5.6918160785070349e-01 7.9236783595107163e-02 1.0127708535135669e+00
51 3.2354225092201538e-01 8.5941843458036604e-01 -1.0230346579008589e+00
2 7.8954444116084865e-01 6.7389881883204239e-01 1.1987674732198863e+00
3 8.0102724287464022e-01 1.1416799823500292e+00 1.2135399848284338e+00
59 1.3647272515279346e-01 7.8310443114944436e-03 -5.6342799911913322e-01
4 5.7036039811411898e-01 4.0255507808286128e-01 -1.6214292344764747e+00
1 -5.9789122132084582e-01 1.2311310792558825e+00 1.4341762371966509e+00
100 -1.7746266631098395e+00 -9.3778206542858078e-01 2.2783708779491302e-01
58 -6.2940354618401362e-01 6.7995014894181705e-01 -2.4179927687255789e-01
60 1.6161122646849724e+00 -1.0687285385422296e+00 5.7749518049851856e-01
5 2.1155084858827411e-01 -4.4308047746072687e-01 -1.2078924311398995e+00
61 -5.5965962896106070e-01 2.1162378539335700e+00 -1.5347213259608783e-01
23 1.9852020765040594e+00 1.4904700865939597e+00 1.1309580809129340e+00
24 2.8655183908098225e-01 -1.1635405650062161e+00 -4.3263966655244168e-01
57 -1.1132810446881105e+00 9.7082371095213960e-01 -1.0638733943433902e-01
56 -2.4171677026297672e-01 5.6330445028727083e-02 -2.4559604332180474e+00
55 -7.3055511284185726e-01 8.5063773014351862e-01 -5.7849290659242980e-01
6 -7.1592138644940140e-01 5.1087175488497127e-01 -4.5966680744571603e-01
67 2.9166715982528035e-01 6.7417029387391236e-01 6.0954245783806565e-02
7 3.3094379584710776e-01 -8.8657975793757904e-01 -2.1117841005275348e-02
65 -5.2327116460008249e-01 1.4019772243043566e-01 7.7796369540719512e-01
8 2.7501412429355726e-01 1.2725111027341300e+00 -6.4491726788551373e-01
9 1.4495518583635476e+00 8.4727463179945589e-02 1.1965124479696831e-01
63 -7.4655380539106009e-01 -3.1362334759738264e-01 -2.1251499919320720e+00
46 -6.8467109088825351e-01 -3.8129347795144486e-01 -1.2562651514819159e+00
10 7.1245643753033078e-02 -4.3517885384318866e-01 -3.3432265836892827e-01
11 2.9695677035202139e-01 2.3592902152433401e-01 -6.5507441158009896e-02
78 -2.7486388967331549e-01 -6.7012882560529174e-01 1.4558903316370519e+00
47 5.9095430788993930e-01 1.6167754045394367e-01 1.0574385093708798e+00
12 4.2387362894719649e-01 1.9652957123504473e+00 9.5765045166138474e-01
45 4.0932279155948142e-01 1.1153260157392781e+00 1.5760214265852313e-01
42 4.7344420954718330e-01 1.5008066657301162e+00 -1.3954061176456485e+00
44 2.5642881164640452e-01 2.4109797341388201e-01 -8.5186107688249835e-01
43 -5.0197958951450850e-01 -9.1604619473311621e-01 1.1324093063441325e+00
77 -8.4519268671646530e-01 -2.2177099099593023e+00 -7.4292005401450520e-02
76 -1.3995835627739175e+00 9.5759120917044560e-01 -4.8622210094894003e-01
74 5.2713265746312543e-01 -5.2899459614623001e-01 -3.8541191988919438e-01
72 7.9546031179454901e-01 6.7999169300864071e-01 -3.0968292268677401e-02
18 -1.6725132750908389e-01 -1.7334115061556106e+00 -1.8286892690589645e+00
41 1.0600072528726656e+00 2.5962365864519804e-01 1.3249608955913030e+00
14 -9.1736400539764540e-01 -2.8331648793741965e-01 -5.9066781304869409e-01
75 -8.5419349615874518e-01 -1.4826399991713872e+00 -7.1725838174601653e-01
16 -1.3384763294876962e+00 -1.4517114679861240e+00 1.0281159304952689e+00
17 1.5123846424566212e-02 3.4058966008640001e-01 -2.2992396530932938e-01
73 -2.8553093379134803e-01 -3.6106428055856349e-01 -1.4479717475326763e+00
13 3.3888023743963491e-01 -3.2316116318676018e+00 -8.9678032880212266e-01
71 -1.8186982373150112e-01 -1.0308574186215003e-01 1.0363054432859258e+00
15 3.5993085107001027e-01 -9.0086395041699574e-01 8.5083283584216662e-01
50 1.0191059240568974e+00 3.5162632276903488e-01 6.2687487087466121e-01
66 2.5411336619527476e+00 -5.9530827372041717e-01 1.0420320671868593e+00
64 -1.0116083326179393e+00 -4.3931852783497255e-01 -1.1483785232849399e+00
48 5.6649780089862944e-01 1.5476446874882990e+00 -1.1828634262610978e+00
40 -1.1600391538668897e+00 -3.2104620430468911e-01 3.6018108192298248e-01
19 9.6866247858823629e-01 -1.1554562276837239e+00 1.0648877909468761e+00
49 4.2122927297806589e-02 5.5447584355539703e-01 1.2220701026920946e+00
62 2.0735787553111047e+00 1.0697507898066780e+00 1.5112361647648302e+00
68 -1.0839481535843036e+00 3.8968590221038568e-01 -6.6401440504245213e-01
21 1.1377891479892808e+00 1.6533902740592943e+00 1.7943476526262803e+00
20 -3.0422783151313509e-01 5.6502852982669882e-02 -4.6154742175420788e-01
69 1.0121929585465277e+00 -9.9489792832086332e-01 1.2639101881143404e+00
70 5.3045639976226955e-01 -1.2296320570805950e+00 -1.2042451351811316e+00
52 7.0679348870353498e-01 5.4628008756989144e-02 6.4717161061063877e-01
53 5.5046836461723214e-01 9.6011867336356260e-01 -9.9738988962450892e-01
22 -2.1008639574202181e-01 3.9730093046036674e-01 4.1965708370481009e-01
54 1.0628514998643739e+00 5.1136103590481574e-01 -7.0401183383675736e-01

Bonds

1 1 25 26
2 1 26 27
3 1 98 99
4 1 94 95
5 1 97 98
6 1 95 96
7 1 93 94
8 1 96 97
9 1 99 100
10 1 32 33
11 1 34 35
12 1 33 34
13 1 31 32
14 1 85 86
15 1 30 31
16 1 35 36
17 1 91 92
18 1 92 93
19 1 89 90
20 1 88 89
21 1 86 87
22 1 36 37
23 1 37 38
24 1 84 85
25 1 87 88
26 1 29 30
27 1 90 91
28 1 80 81
29 1 83 84
30 1 81 82
31 1 38 39
32 1 79 80
33 1 82 83
34 1 39 40
35 1 28 29
36 1 27 28
37 1 51 52
38 1 2 3
39 1 3 4
40 1 59 60
41 1 4 5
42 1 1 2
43 1 100 1
44 1 58 59
45 1 60 61
46 1 5 6
47 1 61 62
48 1 23 24
49 1 24 25
50 1 57 58
51 1 56 57
52 1 55 56
53 1 6 7
54 1 67 68
55 1 7 8
56 1 65 66
57 1 8 9
58 1 9 10
59 1 63 64
60 1 46 47
61 1 10 11
62 1 11 12
63 1 78 79
64 1 47 48
65 1 12 13
66 1 45 46
67 1 42 43
68 1 44 45
69 1 43 44
70 1 77 78
71 1 76 77
72 1 74 75
73 1 72 73
74 1 18 19
75 1 41 42
76 1 14 15
77 1 75 76
78 1 16 17
79 1 17 18
80 1 73 74
81 1 13 14
82 1 71 72
83 1 15 16
84 1 50 51
85 1 66 67
86 1 64 65
87 1 48 49
88 1 40 41
89 1 19 20
90 1 49 50
91 1 62 63
92 1 68 69
93 1 21 22
94 1 20 21
95 1 69 70
96 1 70 71
97 1 52 53
98 1 53 54
99 1 22 23
100 1 54 55

Angles

1 1 24 25 26
2 1 25 26 27
3 1 97 98 99
4 1 93 94 95
5 1 96 97 98
6 1 94 95 96
7 1 92 93 94
8 1 95 96 97
9 1 98 99 100
10 1 31 32 33
11 1 33 34 35
12 1 32 33 34
13 1 30 31 32
14 1 84 85 86
15 1 29 30 31
16 1 34 35 36
17 1 90 91 92
18 1 91 92 93
19 1 88 89 90
20 1 87 88 89
21 1 85 86 87
22 1 35 36 37
23 1 36 37 38
24 1 83 84 85
25 1 86 87 88
26 1 28 29 30
27 1 89 90 91
28 1 79 80 81
29 1 82 83 84
30 1 80 81 82
31 1 37 38 39
32 1 78 79 80
33 1 81 82 83
34 1 38 39 40
35 1 27 28 29
36 1 26 27 28
37 1 50 51 52
38 1 1 2 3
39 1 2 3 4
40 1 58 59 60
41 1 3 4 5
42 1 100 1 2
43 1 99 100 1
44 1 57 58 59
45 1 59 60 61
46 1 4 5 6
47 1 60 61 62
48 1 22 23 24
49 1 23 24 25
50 1 56 57 58
51 1 55 56 57
52 1 54 55 56
53 1 5 6 7
54 1 66 67 68
55 1 6 7 8
56 1 64 65 66
57 1 7 8 9
58 1 8 9 10
59 1 62 63 64
60 1 45 46 47
61 1 9 10 11
62 1 10 11 12
63 1 77 78 79
64 1 46 47 48
65 1 11 12 13
66 1 44 45 46
67 1 41 42 43
68 1 43 44 45
69 1 42 43 44
70 1 76 77 78
71 1 75 76 77
72 1 73 74 75
73 1 71 72 73
74 1 17 18 19
75 1 40 41 42
76 1 13 14 15
77 1 74 75 76
78 1 15 16 17
79 1 16 17 18
80 1 72 73 74
81 1 12 13 14
82 1 70 71 72
83 1 14 15 16
84 1 49 50 51
85 1 65 66 67
86 1 63 64 65
87 1 47 48 49
88 1 39 40 41
89 1 18 19 20
90 1 48 49 50
91 1 61 62 63
92 1 67 68 69
93 1 20 21 22
94 1 19 20 21
95 1 68 69 70
96 1 69 70 71
97 1 51 52 53
98 1 52 53 54
99 1 21 22 23
100 1 53 54 55
