LAMMPS data file via write_data, version 12 Dec 2018, timestep = 20000

200 atoms
1 atom types
200 bonds
1 bond types
200 angles
1 angle types

-3.5000000000000000e+01 3.5000000000000000e+01 xlo xhi
-3.5000000000000000e+01 3.5000000000000000e+01 ylo yhi
-3.5000000000000000e+01 3.5000000000000000e+01 zlo zhi

Masses

1 1

Atoms # angle

70 1 1 -6.0832462406548622e+00 -7.7045336726464442e-01 -4.6024772265098735e+00 0 0 0
72 1 1 -5.7160749886259170e+00 -1.2847726145819438e+00 -3.2927164682074084e+00 0 0 0
71 1 1 -5.5174008166091415e+00 -1.4518915000245194e+00 -4.2846097128778373e+00 0 0 0
73 1 1 -5.0963013002581663e+00 -2.0294783596697932e+00 -3.5112106661503355e+00 0 0 0
173 1 1 -3.1863958876942808e+00 -6.9555207436992523e+00 -1.8951211543492381e+00 0 0 0
174 1 1 -3.1368795823464168e+00 -6.3801660783850549e+00 -2.6860016094711407e+00 0 0 0
184 1 1 -3.6538115278224070e-01 -4.5968404964682424e-01 -6.3603474045404540e-01 0 0 0
75 1 1 -5.1706578024851995e+00 -3.8952652478859036e+00 -3.0715159159031140e+00 0 0 0
74 1 1 -4.9500291716596436e+00 -2.9530677133851420e+00 -3.1840018072122884e+00 0 0 0
178 1 1 -1.5183640761508121e+00 -4.2353859596605954e+00 -1.6226767559255744e+00 0 0 0
68 1 1 -7.0896029860182823e+00 -6.0477499549199165e-01 -3.8077102437330752e+00 0 0 0
66 1 1 -7.9234335865216412e+00 -1.9738684090459171e-01 -3.0493779819831954e+00 0 0 0
176 1 1 -2.7386569777635081e+00 -5.2504667293988518e+00 -1.2260517348618778e+00 0 0 0
69 1 1 -6.1654675360825486e+00 -2.9416670501844089e-01 -3.7398728897561599e+00 0 0 0
171 1 1 -2.4372798309444623e+00 -7.7919269149232457e+00 -7.0153803598144326e-01 0 0 0
172 1 1 -2.4399003974586351e+00 -7.5621344176871501e+00 -1.6324474939105051e+00 0 0 0
6 1 1 -4.2410288781918064e+00 -1.5155444537740941e+00 -1.6288815259620812e+00 0 0 0
76 1 1 -4.7546868397414075e+00 -3.7307423955732402e+00 -2.1737215058726167e+00 0 0 0
164 1 1 -6.3402738720390373e+00 -6.6182105961508402e+00 -2.8014823932605631e-01 0 0 0
112 1 1 -8.2117630594135038e-01 -1.2838388028586241e+00 -1.7551708904769037e+00 0 0 0
111 1 1 -1.4843092558866200e+00 -7.4572064128870186e-01 -1.3203873519328215e+00 0 0 0
80 1 1 -4.7632624136890165e+00 -5.9139522984609680e+00 -8.7292857368205024e-01 0 0 0
175 1 1 -2.9083744552810513e+00 -5.8874992282205012e+00 -1.9136873875256784e+00 0 0 0
180 1 1 -9.8911192849235730e-01 -3.6456813703566300e+00 -4.8187202564860848e-01 0 0 0
78 1 1 -5.5863641282032432e+00 -4.9670359906861705e+00 -1.4403088102612718e+00 0 0 0
79 1 1 -5.5644245309269946e+00 -5.9121327140424729e+00 -1.2516304167181453e+00 0 0 0
77 1 1 -4.9839381155970539e+00 -4.1976744155714236e+00 -1.3476767290210754e+00 0 0 0
82 1 1 -3.1134662744888764e+00 -6.0542738513469425e+00 -3.9367148694074960e-01 0 0 0
179 1 1 -1.7380796838063612e+00 -3.4432614479074881e+00 -1.0597654394024241e+00 0 0 0
182 1 1 -3.5952079382672775e-01 -2.1988763773908477e+00 -4.3962882861057856e-01 0 0 0
177 1 1 -2.0828157560440559e+00 -4.6271599463696704e+00 -8.6228583004856907e-01 0 0 0
110 1 1 -2.2120988839936175e+00 -1.3620047643089475e-01 -1.0294735095034799e+00 0 0 0
81 1 1 -3.8309841352425846e+00 -5.7015627932090478e+00 -9.2653458202486705e-01 0 0 0
7 1 1 -3.6559525367841363e+00 -1.7697413278458134e+00 -9.2679518289062046e-01 0 0 0
4 1 1 -4.4145663001071034e+00 -4.8824283176117089e-03 -2.6185079913344378e+00 0 0 0
5 1 1 -4.0443751721810042e+00 -5.4906344496884874e-01 -1.9122570737997058e+00 0 0 0
181 1 1 -7.4374396872019832e-01 -2.8367740677841318e+00 -1.1498189775346381e+00 0 0 0
9 1 1 -4.7391089673137898e+00 -2.9477124845138460e+00 -1.3497065644654471e-01 0 0 0
8 1 1 -4.2230024640981725e+00 -2.4704915769204372e+00 -7.7332487238631320e-01 0 0 0
11 1 1 -3.1686258473031352e+00 -3.5062852596751033e+00 -5.7248385153507775e-02 0 0 0
26 1 1 -4.9819290481355063e+00 -2.0777137280923212e+00 6.6576964662884208e+00 0 0 0
25 1 1 -4.2786937701670054e+00 -2.4348167041613329e+00 6.0912173079833840e+00 0 0 0
83 1 1 -2.3310283633887128e+00 -6.1942878239559116e+00 1.6151866636082732e-01 0 0 0
159 1 1 -7.0484405098784313e+00 -3.4824565849128408e+00 7.3005312604083072e-01 0 0 0
157 1 1 -7.1527907868534939e+00 -1.9447753169934567e+00 1.6436967686653934e+00 0 0 0
156 1 1 -6.2298044507095058e+00 -2.0896607562926910e+00 1.8702886364957048e+00 0 0 0
155 1 1 -5.4117944653116545e+00 -2.1189158560451262e+00 2.2135368375505382e+00 0 0 0
28 1 1 -4.6303363857669435e+00 -1.4038544094561256e+00 7.8531857156917608e+00 0 0 0
14 1 1 -2.5373915655215109e+00 -4.0636583917871958e+00 1.8756156372879815e+00 0 0 0
149 1 1 -1.7818730678898105e+00 -1.1154168471153536e+00 1.1756209702994758e+00 0 0 0
30 1 1 -5.6131342401273825e+00 -8.3276116355697483e-01 6.6271056643820865e+00 0 0 0
13 1 1 -2.7839267780749819e+00 -4.4544889975696202e+00 1.0699606200985126e+00 0 0 0
29 1 1 -4.7814096700184212e+00 -7.7029643014736682e-01 7.1659633405412722e+00 0 0 0
86 1 1 -1.1743874503873950e+00 -7.6796126460308249e+00 1.0805955642974046e+00 0 0 0
22 1 1 -2.9221003924455355e+00 -2.0191456678532993e+00 5.9918970651532524e+00 0 0 0
158 1 1 -6.9937012456854228e+00 -2.8307889223162706e+00 1.4771962719662983e+00 0 0 0
15 1 1 -3.5060688549581931e+00 -3.9791694697732320e+00 1.8727137534805656e+00 0 0 0
16 1 1 -3.6590825931077644e+00 -3.9323855887134016e+00 2.8014706931649758e+00 0 0 0
154 1 1 -4.6624507750912390e+00 -2.2028897004676784e+00 2.8542325674677920e+00 0 0 0
153 1 1 -4.3892611288283856e+00 -2.7103381043880930e+00 2.0142435757313506e+00 0 0 0
152 1 1 -3.6145184177229606e+00 -2.1913877156981316e+00 2.0744824347144846e+00 0 0 0
150 1 1 -2.3589944226196575e+00 -1.8423779722235589e+00 1.4837726085144620e+00 0 0 0
148 1 1 -8.4582999490581001e-01 -1.1654819829087042e+00 1.4147547570679035e+00 0 0 0
18 1 1 -2.5705706309823575e+00 -3.3050487959583874e+00 4.1684788298523943e+00 0 0 0
17 1 1 -3.1335466415719817e+00 -3.8938756161028589e+00 3.5783892060155629e+00 0 0 0
27 1 1 -5.2445232152133414e+00 -2.0623014596457208e+00 7.5528401118740200e+00 0 0 0
151 1 1 -3.1116758091723598e+00 -2.2729299734106929e+00 1.2156452256688475e+00 0 0 0
24 1 1 -3.7716048056537899e+00 -3.1990056994934863e+00 5.8071754801133739e+00 0 0 0
23 1 1 -3.3393036223462880e+00 -2.6014565457942034e+00 5.2965854637622538e+00 0 0 0
20 1 1 -1.7868276855101275e+00 -2.2895560714400824e+00 5.1528378733469005e+00 0 0 0
19 1 1 -1.7512097209916406e+00 -3.1098257680854058e+00 4.7088562363637747e+00 0 0 0
21 1 1 -2.6006154241751087e+00 -1.7585484501534252e+00 5.1018650496178850e+00 0 0 0
160 1 1 -7.7846339251631225e+00 -4.1763454179704063e+00 7.1808740684406369e-01 0 0 0
120 1 1 -9.2319724194124431e-01 -4.0298466683208440e+00 1.8090525256905730e+00 0 0 0
119 1 1 -6.7837633788807561e-01 -3.3932163849080856e+00 1.1751421374392745e+00 0 0 0
88 1 1 -1.1237036321148177e+00 -6.6177277687966223e+00 3.6243980606188475e-01 0 0 0
121 1 1 -6.2784893459453706e-01 -3.8772884068821978e+00 2.7232320796196303e+00 0 0 0
169 1 1 -3.3169583485391430e+00 -7.1671949634873044e+00 4.2843460993431320e-01 0 0 0
87 1 1 -6.7440120288202920e-01 -6.8222899461772988e+00 1.1429209307128767e+00 0 0 0
31 1 1 -6.5757593396423060e+00 -7.6028613182236759e-01 6.8556091887217638e+00 0 0 0
89 1 1 -4.9247328942106100e-01 -5.9530650211948872e+00 5.4048572533824535e-01 0 0 0
101 1 1 -5.4578253356063255e-01 -1.4713469769202949e+00 2.4974660393245509e+00 0 0 0
162 1 1 -6.7870762720717872e+00 -5.6628463357504657e+00 1.1844171165119735e+00 0 0 0
85 1 1 -1.9337761558002919e+00 -7.1419481070756055e+00 1.0009123790630763e+00 0 0 0
84 1 1 -2.7130930839168088e+00 -6.4955551541173771e+00 9.6579683389490634e-01 0 0 0
161 1 1 -7.5434254434204355e+00 -5.1586481918924205e+00 9.2127635248064954e-01 0 0 0
166 1 1 -5.5023701229990944e+00 -6.9299772578919043e+00 4.8346642215537589e-01 0 0 0
163 1 1 -6.7082238175541180e+00 -6.4019210078608237e+00 6.0323753555651694e-01 0 0 0
102 1 1 -5.2323070725077503e-01 -6.5393755756959915e-01 2.9142386983941462e+00 0 0 0
118 1 1 -3.1294963185736430e-01 -3.3537106186779040e+00 2.8885944521463092e-01 0 0 0
167 1 1 -4.7095347845732514e+00 -7.3818722605172580e+00 6.4212601241372269e-01 0 0 0
12 1 1 -3.5274148754588803e+00 -3.7276910032362296e+00 8.9034838119012916e-01 0 0 0
10 1 1 -3.8547687044795591e+00 -2.8720636640211690e+00 3.1626646099703393e-01 0 0 0
165 1 1 -6.2441768761159411e+00 -7.5255996642296390e+00 1.4340656236250554e-01 0 0 0
168 1 1 -3.9424404523919394e+00 -7.3925023812426778e+00 1.1648723209909637e+00 0 0 0
106 1 1 -1.7150933595849094e+00 -1.3298818535450688e-02 1.8052391604926437e+00 0 0 0
146 1 1 -1.5452420685068111e-01 -9.7755108758259213e-02 1.3166718621990665e+00 0 0 0
37 1 1 -6.0458112869172025e+00 -4.1574302676323872e-02 6.1223826142992746e+00 0 0 0
108 1 1 -2.1370251347051155e+00 -3.7401429394134045e-01 4.4866412213562190e-01 0 0 0
170 1 1 -3.0406705253845550e+00 -7.9583919374804006e+00 9.2017047535386601e-03 0 0 0
122 1 1 -3.2645487810708362e-02 -4.5918532523422169e+00 2.8231443102410019e+00 0 0 0
60 1 1 -1.1276977429950529e+01 1.0459418282818373e+00 -2.6563751225174836e-01 0 0 0
196 1 1 -2.9848479282008861e-01 8.0377545309139331e-01 -5.2009224320529279e+00 0 0 0
61 1 1 -1.0335881099894891e+01 9.5611505356830850e-01 -4.7306332483410335e-01 0 0 0
62 1 1 -1.0181995249661968e+01 7.3913310155142886e-01 -1.3943247580425746e+00 0 0 0
1 1 1 -2.5716384309359990e+00 7.5589618824500981e-01 -2.5771808786726109e+00 0 0 0
186 1 1 -5.9463123722177458e-01 1.1848035851641916e+00 -1.0524714450846542e+00 0 0 0
197 1 1 -9.3994426326350555e-01 1.4650194475741560e+00 -4.9504305439991798e+00 0 0 0
200 1 1 -1.9952398212412901e+00 1.2527111034849847e+00 -3.2122842913358420e+00 0 0 0
3 1 1 -3.9613026970088265e+00 5.0697093942195859e-01 -3.2184501371699707e+00 0 0 0
198 1 1 -1.4415030415313497e+00 1.0978935927709321e+00 -4.2122825218375981e+00 0 0 0
185 1 1 -2.1392605159389799e-01 3.0540877419151991e-01 -1.1953077198631596e+00 0 0 0
199 1 1 -1.0609648617112184e+00 1.1051128923481339e+00 -3.3669935848466785e+00 0 0 0
64 1 1 -8.9849110377367136e+00 6.1057677552156531e-01 -2.4579984210941257e+00 0 0 0
65 1 1 -8.8341966781813994e+00 6.7541094087744752e-02 -3.2911073573040506e+00 0 0 0
67 1 1 -7.0873574679945772e+00 2.1582837294165794e-01 -3.4153595038701057e+00 0 0 0
109 1 1 -2.4040417835361381e+00 2.9412956536610702e-01 -1.4748291869028210e-01 0 0 0
63 1 1 -9.8904261060547718e+00 8.5952062777444649e-01 -2.3092424989615323e+00 0 0 0
2 1 1 -3.0590083987757777e+00 3.3646977859288296e-01 -3.3465653407372651e+00 0 0 0
195 1 1 -1.2051671109652881e-01 1.2634985774847176e+00 -4.3763079708531762e+00 0 0 0
36 1 1 -6.8034136450278497e+00 3.2352114146242450e-01 5.7058137670706754e+00 0 0 0
51 1 1 -7.4263823608011439e+00 3.5999913952351852e+00 2.1885433452638753e-01 0 0 0
50 1 1 -7.5133161317353778e+00 3.9985402162468260e+00 1.0738295026742026e+00 0 0 0
56 1 1 -1.0620643892002636e+01 2.3156295208487427e+00 1.7040306053540977e+00 0 0 0
46 1 1 -5.7401956174987676e+00 3.6611795275384220e+00 2.6107363061391418e+00 0 0 0
49 1 1 -6.6950139787330256e+00 4.3959722770119409e+00 1.2590446788354173e+00 0 0 0
47 1 1 -5.3757710704585140e+00 4.1990722641124094e+00 1.9283567250700058e+00 0 0 0
45 1 1 -4.9672867714139510e+00 3.0431456513520940e+00 2.6311693880994063e+00 0 0 0
48 1 1 -6.0726866325638582e+00 3.7638888772662855e+00 1.4368263191899908e+00 0 0 0
43 1 1 -3.8141177810721203e+00 2.8048626352396075e+00 4.0970112969889874e+00 0 0 0
44 1 1 -4.4288657412721282e+00 3.0418403582096194e+00 3.5026688763259348e+00 0 0 0
54 1 1 -1.0097693800029349e+01 3.3310267651529863e+00 3.0748830822543660e-01 0 0 0
32 1 1 -6.4473797889886626e+00 9.7187469022645100e-03 7.4987401604023525e+00 0 0 0
35 1 1 -6.9956475893750394e+00 1.2702722863322735e+00 5.8820968751476475e+00 0 0 0
41 1 1 -3.9870302066773733e+00 2.4230483590885226e+00 5.8162157766916316e+00 0 0 0
42 1 1 -4.1866940504818029e+00 2.3683828920192447e+00 4.8646657171671208e+00 0 0 0
57 1 1 -1.0350530242004179e+01 1.5711915961041965e+00 1.1573447998317299e+00 0 0 0
104 1 1 -9.6499538365369919e-01 5.0151481795876429e-01 2.3753360597004045e+00 0 0 0
53 1 1 -9.3684784865172119e+00 3.8923295384837844e+00 6.9901677920601502e-01 0 0 0
38 1 1 -5.2351658498309979e+00 4.9452552235380781e-01 6.2933032595744152e+00 0 0 0
105 1 1 -1.7762371632694083e+00 9.3051875150334751e-01 2.0949522782948695e+00 0 0 0
34 1 1 -6.3161995766875725e+00 1.2471821091937467e+00 6.5304870673815794e+00 0 0 0
58 1 1 -1.1249993855136832e+01 1.5864022344559521e+00 9.2589391445669911e-01 0 0 0
52 1 1 -8.4063563075240371e+00 3.6775524219521394e+00 4.4339994453447829e-01 0 0 0
55 1 1 -1.0572756807149645e+01 2.6323236539606021e+00 7.6618865615125975e-01 0 0 0
107 1 1 -1.8380738327215604e+00 4.2745764995977081e-01 9.7345522925263728e-01 0 0 0
103 1 1 -3.4379153026808579e-01 3.0919954288385687e-01 3.0598867901781439e+00 0 0 0
33 1 1 -6.8465753517325183e+00 8.0582778063737348e-01 7.1522582130986878e+00 0 0 0
40 1 1 -4.5646002729556798e+00 1.7372417058252634e+00 6.1937687580263034e+00 0 0 0
39 1 1 -5.0148332960053743e+00 1.1443812062883780e+00 5.6527773133368298e+00 0 0 0
59 1 1 -1.1073029035154875e+01 1.9613234889748981e+00 7.3829476459806326e-03 0 0 0
115 1 1 1.3318138437579812e+00 -2.4737293012998296e+00 -8.5528101707300075e-01 0 0 0
114 1 1 6.0175260701747635e-01 -2.4172984299585631e+00 -1.5697588487264689e+00 0 0 0
113 1 1 5.4281045383313811e-02 -1.6514739701739125e+00 -1.5652023164161382e+00 0 0 0
117 1 1 6.0118948943498440e-01 -3.6556547984235195e+00 -1.2444452125580101e-01 0 0 0
183 1 1 1.9880405924867939e-02 -1.2663014878175236e+00 -3.5279849442080957e-01 0 0 0
123 1 1 8.1929233688086064e-02 -4.8930843857332871e+00 3.7561892573224043e+00 0 0 0
96 1 1 2.6735273093003857e+00 -2.9067804367686656e+00 1.0265785527019660e+00 0 0 0
125 1 1 8.2842921340614784e-01 -4.2848812100559748e+00 4.7324106423390413e+00 0 0 0
94 1 1 2.4167359704501807e+00 -4.1909165168692919e+00 1.0618989604811999e+00 0 0 0
132 1 1 3.5400122443616109e+00 -1.4506530932745165e+00 3.6942565837398966e+00 0 0 0
128 1 1 2.7812989188724275e+00 -3.7948255233815353e+00 4.4272862893758642e+00 0 0 0
124 1 1 6.4159638451702539e-01 -4.1283791689912936e+00 3.7578000613214648e+00 0 0 0
126 1 1 1.5594619329722106e+00 -4.9353775516655087e+00 4.9386914825357984e+00 0 0 0
129 1 1 2.3587152106444087e+00 -3.0752682846376489e+00 3.9118814266719348e+00 0 0 0
147 1 1 8.9733351854231036e-02 -1.0323556725454135e+00 1.4757778400335277e+00 0 0 0
133 1 1 3.9035374875208642e+00 -7.5611416420914446e-01 3.1668095220880992e+00 0 0 0
90 1 1 3.4344633315377132e-01 -5.9064146168088580e+00 1.0227878853735983e+00 0 0 0
92 1 1 9.2880310461083415e-01 -4.2585562267414918e+00 1.4781468591692797e+00 0 0 0
131 1 1 2.6668093032125801e+00 -1.6702394801779268e+00 3.3241830184028753e+00 0 0 0
97 1 1 1.9143237731378331e+00 -2.9636850156921857e+00 1.6045029545067957e+00 0 0 0
98 1 1 1.1371815825493294e+00 -2.3876097755781740e+00 1.3293852995023419e+00 0 0 0
100 1 1 3.7554870460151824e-01 -1.6847891780218360e+00 2.2415542332729554e+00 0 0 0
99 1 1 3.9254714946380004e-01 -2.5546485405716997e+00 1.8255504570322234e+00 0 0 0
127 1 1 1.9441047780855727e+00 -4.3101607801562096e+00 4.3162238124322805e+00 0 0 0
130 1 1 2.0998874286670404e+00 -2.4013767644972281e+00 3.2355683295678497e+00 0 0 0
91 1 1 2.2078452381436281e-01 -4.9957792860410173e+00 1.4383890135203687e+00 0 0 0
93 1 1 1.5468440470619924e+00 -4.2871685438179474e+00 7.8652482336570684e-01 0 0 0
95 1 1 3.2644794784613680e+00 -3.6360033495898705e+00 1.1677573265102195e+00 0 0 0
116 1 1 1.1195071766343856e+00 -2.7998222513551938e+00 3.0862986868756587e-03 0 0 0
191 1 1 1.7954947424272736e+00 2.1813702968355724e+00 -2.1549029390398098e+00 0 0 0
192 1 1 1.2085002983750599e+00 1.7189574508430976e+00 -2.7426250036644473e+00 0 0 0
189 1 1 1.8994064493221432e+00 8.9662360093995519e-01 -1.1596816863248500e+00 0 0 0
190 1 1 2.2941941960854759e+00 1.7353738614031018e+00 -1.4295044848480691e+00 0 0 0
193 1 1 6.8666715274886081e-01 2.3592423052225038e+00 -3.1076473349058755e+00 0 0 0
188 1 1 1.0793648069606849e+00 1.4031560257113023e+00 -1.0052266287369418e+00 0 0 0
194 1 1 3.0647987179238112e-01 1.9341189367571094e+00 -3.9393129037111514e+00 0 0 0
187 1 1 2.5710667943603527e-01 1.2444605883396871e+00 -1.5243375383352156e+00 0 0 0
140 1 1 2.5298176128938823e+00 2.3937007585253762e+00 1.3916294527449271e+00 0 0 0
138 1 1 3.4725955028447131e+00 9.4402309690570763e-01 1.9568334879140663e+00 0 0 0
139 1 1 3.1440903928952193e+00 1.5324182131029735e+00 1.3587241745768268e+00 0 0 0
137 1 1 3.2180306664312748e+00 1.5667071685571949e+00 2.6509707542451277e+00 0 0 0
142 1 1 1.0758958875964793e+00 1.8272421413069315e+00 6.2646039734256886e-01 0 0 0
141 1 1 1.8559011624880584e+00 1.7207447716120596e+00 1.2325948598021834e+00 0 0 0
143 1 1 4.5510947129912027e-01 1.8529102340243324e+00 1.3858498990538271e+00 0 0 0
136 1 1 3.8980763556683602e+00 1.5685075077713275e+00 3.3054906497399910e+00 0 0 0
144 1 1 5.3547300305798640e-01 1.2007773953104512e+00 2.0579544897226136e+00 0 0 0
135 1 1 4.4648969267296295e+00 8.1552851310766195e-01 3.0271463480282415e+00 0 0 0
134 1 1 3.8092056766972244e+00 1.0314906056528278e-01 2.8253536691367280e+00 0 0 0
145 1 1 5.9098943028924189e-01 3.5589346869368294e-01 1.7675202647336854e+00 0 0 0

Velocities

70 -2.0686300351113768e-02 -1.7087770612696440e+00 -1.8987202453391319e-02
72 6.5694361809709556e-01 5.6997108035989297e-01 3.1452291636793051e-01
71 4.7218585455647749e-01 8.6274978179190953e-01 -6.3146925857442149e-01
73 4.5644380757194197e-01 2.2623065585583482e+00 8.4988046700049302e-01
173 8.2548226394358781e-01 -1.1079038515220994e+00 9.5263010779208523e-01
174 -9.1711641261310817e-01 -3.0405109521316626e-01 -1.2339074107483423e+00
184 1.0622378453563914e+00 -3.3138821490715326e-01 7.3573930714185765e-01
75 4.5706635815619601e-01 -1.0399267908961501e-01 -6.5480031186802734e-01
74 4.1568717873670785e-01 9.6109256542778954e-01 3.8218605376839399e-01
178 -2.6481113284425917e-01 4.3859794499113752e-01 2.5110406935026393e+00
68 6.1264058776870856e-01 -1.0164172636210067e-01 2.1657588653570806e-01
66 -3.2135542920163213e-01 -3.8895483029850408e-01 4.4629066003805390e-01
176 -2.0349984455172900e+00 -4.7448991130374829e-01 3.3011420450242072e-02
69 1.8568695842869776e-01 -1.0029485598077013e+00 1.8751021583547451e+00
171 -2.5928902884519246e-02 1.5168469631098855e+00 1.9359145471971420e+00
172 -1.4175416027116865e+00 1.2987406450537089e+00 -1.6159536744026410e+00
6 9.1333792652761048e-01 2.3494516009075017e-01 8.6395089333139358e-02
76 -1.0913780594068587e+00 -1.6509508823191046e+00 -2.5585430599988479e+00
164 7.3733696816067817e-01 6.0828378503521052e-01 8.3979212820248605e-01
112 -8.3590466164522026e-01 1.0103093178144629e+00 1.4086759533744060e+00
111 8.0032780076246113e-01 -3.1403887676391185e-02 1.6704886590004422e-02
80 1.3014602485763171e-01 -3.5896193459978831e-01 -3.9650413606442114e-02
175 -4.0586038258970614e-01 -3.3776842089277448e-01 2.1274045578588376e+00
180 -6.6541344674674119e-01 -1.1921996223370770e+00 -5.3353839434688077e-01
78 -1.6221897063433210e-01 2.6768766710920783e-01 -5.6869161879280616e-01
79 -5.5782920218632237e-01 -8.3264945251720623e-01 -2.0950032379907313e-01
77 1.6921416634435077e-01 -9.6874583277533521e-01 -7.0021421132886008e-01
82 -1.4545383194251990e-01 3.0613868297121913e-02 1.7525275422778577e+00
179 8.6721702837537784e-01 -1.1422677401846446e+00 -1.0608849646133325e+00
182 5.1809830084909936e-01 4.5829771353566157e-01 -8.0355982386472091e-01
177 -6.0473730528623415e-01 -2.1389783875136403e-01 1.0610005772657203e+00
110 -3.8030789884928162e-01 -2.8034840352914420e-01 7.3068383455499897e-01
81 2.2186369946127113e-01 -9.7443933151101092e-01 -1.1440265866796488e-01
7 -8.8395455201328410e-01 5.7547975985827837e-01 -1.5380319891773653e-01
4 1.8976682135789602e+00 1.7209227734730514e+00 1.1487388903630309e+00
5 5.4739181972259326e-02 -4.5780292271133449e-01 2.0484910743432128e-01
181 -1.4077904843485467e+00 4.9310192082392190e-01 -4.1487319307205700e-01
9 1.6862690896379087e-01 -1.1859307862511106e+00 9.9976200552993652e-02
8 8.9162867613361424e-02 -4.6236571354168055e-01 1.0499986394429441e+00
11 -7.9390503752260799e-01 -1.5100349917960696e+00 -1.4689677936298013e+00
26 1.3484775757528844e+00 6.0194765239387449e-01 -6.8051901165096385e-01
25 -1.8269617184451462e-01 6.3339958312117889e-02 -1.4681810603060494e+00
83 6.9115572146237980e-01 -5.0429052301995048e-01 -4.9802140825572316e-01
159 -6.7934325280843810e-01 8.2581374783436440e-02 1.0362857504335901e+00
157 -6.6739068178515892e-01 -1.9686102546646258e+00 -1.3297383065535853e+00
156 -8.7628409914371674e-01 -2.5095129674716932e-01 -6.5060719639067655e-01
155 -3.8081410481506328e-01 4.3235058019534933e-01 2.7947016588795931e-01
28 4.3305887421383993e-01 1.9923175676129252e+00 1.4748387336245039e+00
14 -7.4603245846840860e-01 -3.6777431181770476e-01 2.8284094859304326e-01
149 -2.3285252828735575e-01 1.3591937543152850e+00 -3.0413526066224550e-01
30 -2.5239031096034542e-01 -6.5744274933153851e-02 3.1235091968672163e-01
13 3.3300822805387470e-01 4.8275511636160706e-01 9.6699594293010638e-01
29 6.6406833111832797e-01 4.0448798197031610e-01 1.2834879635744789e-01
86 8.0072194209863135e-01 5.4670677898790876e-01 -2.2764309807238078e-01
22 -1.1930530810552848e+00 -3.0093043941117570e-01 -1.6688234657156935e+00
158 4.0504654398067430e-01 -1.8641975583827991e-01 9.2070541924206140e-01
15 -4.1166238395749932e-01 2.1076126737156491e+00 -3.2846362584963418e-01
16 8.1442947262523424e-01 -3.5042609919426149e-01 8.3325113336460055e-01
154 1.8233283944608161e-01 -1.5409789079863392e+00 -2.4858285142476835e-01
153 -2.4686181650404940e-01 -1.0940943055964878e+00 4.5821232004806242e-02
152 -9.9285058569278473e-01 -3.2018177491033800e-01 1.0490177336182858e+00
150 7.7068397926613375e-01 3.3733692312996055e-01 7.8646987114606814e-01
148 5.2133514381144641e-01 -2.3181740652672675e+00 1.6584071845110102e-01
18 -2.0176696889398129e+00 9.4285466738568824e-01 1.0658014611342268e+00
17 -1.4734347855251977e+00 8.7523575304941859e-01 -1.1803828340092093e-01
27 -5.7375833463550330e-01 -2.3419506010927473e+00 -4.2141063356463015e-01
151 -1.3162043386739337e+00 -3.0975607147311823e-01 -6.8192337359260696e-02
24 -5.4752266100447478e-01 4.5143050874515778e-01 1.1068498332025014e+00
23 -2.3421957700380730e-01 -1.0930783667732369e-01 -1.5600023214809750e-01
20 1.2450422435633277e+00 2.3304823534810755e+00 7.3612604836324258e-01
19 1.1828558280254740e+00 -8.1481260363634855e-01 -1.1083877292533664e+00
21 -4.3358563136342021e-01 1.2410510034178828e+00 -1.4527589412470632e+00
160 5.6972985355745287e-01 -1.3896750025184175e+00 4.9624326366690119e-01
120 1.7188877073405269e+00 1.4705937335224548e+00 -8.0683355497442677e-01
119 -1.1134053346881063e+00 6.7118778485207642e-02 -6.7665043945623060e-01
88 4.1134035464502228e-01 1.6155908703458230e-01 -9.5149904748433822e-01
121 6.8470766529476490e-01 -4.7841240379365108e-01 -5.2999530429441326e-02
169 -2.7875305272561596e-01 -6.1009131408378853e-02 1.2845952162848575e+00
87 2.0868812657670543e-02 -3.4043122999310749e-01 -3.6745369359116875e-02
31 -7.0438713117727328e-02 -7.2166636346333390e-01 8.3353483935320261e-01
89 -4.0375768422661318e-01 -4.3661633874801969e-01 -2.6726385382646593e-02
101 -8.8906532811465350e-02 1.4843218127686844e+00 -3.2056969505637178e-01
162 8.9412086795356238e-01 3.7760949464521482e-01 8.1123834038607401e-01
85 3.2630217008283868e-01 1.5002786449299008e+00 1.1330815987286038e+00
84 2.4676594438401116e+00 -1.4468397179833395e-01 3.5651503540823704e-01
161 -1.0379638341438679e-01 -1.1436150313404598e+00 -2.5146516404833719e+00
166 -8.3760230123646839e-01 1.1033530775112534e+00 8.9973203006000813e-01
163 6.5180397706204118e-01 -6.1471733040889132e-01 1.1187260851575238e+00
102 1.0281948009359039e+00 -8.6379736251095796e-02 7.0765846472216587e-01
118 1.3351411218224132e+00 -6.3502805288820818e-01 1.5215151028142890e-01
167 1.9823178272799802e+00 6.4293222945328710e-01 -3.0151735062023249e-01
12 6.0428286564883127e-01 -1.2602962030953879e+00 3.4124433495319872e-01
10 -9.9186656868416323e-03 1.9966530158727080e-01 -9.9700101461058110e-01
165 -1.1081287155348282e-01 -4.3390413992983018e-01 9.2294807946657037e-02
168 1.2047162376387530e+00 -8.8601997177133973e-01 1.5409194271730271e+00
106 -7.0897779692041585e-01 -6.0851571314558950e-01 -4.3776677635852002e-01
146 1.1778217742506358e+00 9.6858603086605388e-01 -8.9462761723908574e-02
37 -7.2090712205430596e-01 7.3827091794966693e-01 1.3636738553559485e-04
108 5.9318060836265996e-01 -3.0201789987139680e+00 -5.6466573969345313e-01
170 -1.4938549569613717e+00 1.2760646372619471e+00 6.2686426921914740e-01
122 -8.9047456683299520e-01 -1.0967292558472952e+00 -6.6952769922220901e-01
60 -5.9480531640136336e-01 2.9069988328441071e-01 6.1499698364519760e-02
196 1.1176721275126671e+00 9.8015411124144958e-01 -3.7874920241199289e-01
61 -1.1439959152063195e+00 -3.8629029650121205e-01 -6.7821643366899464e-01
62 2.7001405708787996e-01 4.5247589419761658e-01 7.1124041563857143e-01
1 3.3116828337007093e-01 2.7654427893081290e-01 -1.3968709673237452e+00
186 3.3508480965833887e-01 -5.6396851661578914e-02 1.0280205447997488e+00
197 -2.3469332929540018e-01 -1.4033711775674425e+00 9.6241512204386814e-01
200 -4.6811958867098180e-01 4.8767308707094670e-01 -2.2259318368189063e-03
3 -8.8407509793044708e-02 1.1273795196013763e+00 -2.6431324990239136e-01
198 -9.7220474193662221e-01 -5.0210895363394270e-01 1.2242360530611245e+00
185 -4.7037988254193092e-01 7.1478614263940476e-01 -1.4111261955178755e+00
199 -5.2480634212093313e-01 8.0533318604824833e-01 -9.2055086053299073e-01
64 4.9005501232403603e-01 -8.9480699639721717e-01 -6.2062396694461319e-01
65 5.6297767088787243e-01 2.8514406891993588e-01 -4.2290478622063149e-01
67 2.2610715787071598e+00 2.6471356011638286e-01 4.5523881855574694e-01
109 -1.0156945235043080e+00 3.1370638537983619e-01 8.0734963339161270e-01
63 4.2802518136289575e-01 6.1002132912105433e-01 -3.5408406657334579e-01
2 9.3965184186432427e-01 -1.2156600408822310e-01 -3.0477017265844841e-02
195 -7.9161709758923171e-01 1.7422270094509587e+00 1.2321846515183850e+00
36 1.2255251587552760e+00 -8.0180894215259202e-01 -2.2799373458510961e+00
51 7.0735755232952957e-01 9.6636131945909709e-01 1.7892930739782470e-01
50 8.4162487325071489e-01 -9.9331310465801093e-01 5.6711297257147597e-01
56 4.8755256915679379e-01 -1.4262674109763036e+00 -1.2483508819775696e-01
46 1.7365006231942532e+00 1.0363809775822203e-01 -1.2188539610861626e+00
49 3.8499609775216531e-01 8.5651163176367628e-01 -7.2058006185001000e-01
47 7.7369510946364095e-01 1.0892149869932493e+00 2.7031508790656211e-01
45 -5.5355265487631677e-01 -1.3811836437063070e+00 1.1338681798395189e+00
48 -1.3500498263063507e+00 1.6419633237122178e-01 -5.5955471574291027e-01
43 3.8012980668916224e-01 -1.0964588677435907e+00 2.1335702945155788e-01
44 -9.4645911114120640e-01 9.9645681358280735e-01 1.3347803231441502e-01
54 -1.0921388179587872e+00 -3.0848126297707257e-01 1.0067572068210076e+00
32 -6.7972705603892708e-02 -1.0235834718909619e-01 1.2689130406728477e+00
35 1.0910520114766440e+00 -1.5600872516090755e-01 3.2857204992032318e-01
41 -1.5213478324738026e+00 1.2732807082864863e+00 1.3104014940141249e+00
42 4.7388539864295187e-01 -5.1106266989475291e-01 6.5149087454202192e-01
57 -2.6169038536658984e-01 6.5549221350931663e-01 -2.9073855141008766e+00
104 2.9065490228006347e-01 9.7615135967805389e-01 1.3016744781013043e+00
53 1.4593184286754601e+00 -8.7287165372016884e-01 7.5289978598476570e-01
38 -2.7605234326501651e-02 5.1664039821402397e-01 -5.2106473335471429e-02
105 2.0753442405349992e-01 -1.0413746667978345e+00 3.8985745593234040e-02
34 -1.1994821789733673e-01 9.7664229036483852e-01 -6.2645157521985184e-02
58 6.4987630845010835e-01 1.7588049831916497e-01 3.3966504677298254e-01
52 1.2501217184353988e+00 -8.6757195572212398e-02 -8.2290324265164261e-01
55 2.4975337167978808e+00 -4.5350728180893746e-01 -8.2932184676757303e-01
107 -1.4557864280686810e+00 1.7971749458136593e-01 -1.2900085995144928e+00
103 -9.9315186923945187e-01 -1.8202850562723549e-01 9.1763618204954500e-01
33 -2.6062471930803599e-01 -4.2356151772083211e-01 3.1935737602152092e-01
40 1.9886262919780637e+00 1.0557276718036990e+00 -6.9231866061923497e-01
39 1.1178986553156580e+00 1.2212384490522450e+00 6.1646584919293790e-01
59 -3.2614641410994882e-01 -4.3077506757284673e-01 1.5534812172860160e+00
115 1.4763670781143317e+00 1.2793081605015448e+00 7.2086513722151246e-01
114 -8.9586576855446809e-01 1.1372615536851050e+00 -1.8325904690056186e-01
113 -8.1874291465712623e-01 -4.9540313820422666e-01 -6.4122515398886770e-01
117 -1.4507874755142638e+00 -4.3678679516978902e-01 9.0613544328075235e-01
183 3.5008827299603829e-01 1.0260002881773946e+00 -3.2779303781929375e-01
123 -3.6927384381516515e-01 -4.3051112836479954e-01 -2.0126086115392741e+00
96 -9.3359140064895063e-01 1.5892670294877480e+00 -9.1578851434944597e-01
125 1.5115153033069966e+00 -7.6991912037069010e-01 -2.1182526779767630e-01
94 4.4152386539432975e-01 2.1332076972297853e-01 -1.2730963384366634e-01
132 1.0346709624763879e+00 1.7018294639240548e+00 -5.0262070833484745e-02
128 -2.8731242842171425e+00 5.8638592720448401e-01 -1.5419403072463771e+00
124 3.3140403147472342e-01 -2.2313318376269692e-01 1.0537331951382711e+00
126 7.9114240613332054e-01 1.8031006632465099e-01 1.3236152141551023e+00
129 -9.9606984990388570e-01 -9.3435040548283743e-01 -4.0592781148260298e-01
147 5.6724710951917412e-01 -4.2842934950858103e-01 -5.6919461447606123e-01
133 -1.0093137393972815e+00 1.6123820615639333e+00 2.6139683759510096e-01
90 3.4096282670546285e-01 7.8356193442969468e-01 -7.6919190631993239e-01
92 -1.0679272507160249e+00 2.7301225972955423e-01 -6.6483630934993077e-01
131 -1.7599895650247281e+00 3.2436493816865625e-01 -1.2517870406679112e+00
97 -1.9634636850922879e-01 -2.5177667199537873e-01 -1.4062356852338159e-01
98 -5.6853956911351866e-01 4.9664602976360092e-02 4.4435646346283253e-01
100 -8.7728759115211608e-01 -6.9730410518414765e-01 -1.4109995094764891e-01