LAMMPS data file via write_data, version 12 Dec 2018, timestep = 20000

200 atoms
1 atom types
200 bonds
1 bond types
200 angles
1 angle types

-3.5000000000000000e+01 3.5000000000000000e+01 xlo xhi
-3.5000000000000000e+01 3.5000000000000000e+01 ylo yhi
-3.5000000000000000e+01 3.5000000000000000e+01 zlo zhi

Masses

1 1

Atoms # angle

137 1 1 -5.4126236062905395e+00 -3.7709746126870356e+00 -4.2740305732409007e+00 0 0 0
135 1 1 -6.1119431503765353e+00 -4.4485217039362874e+00 -3.0439558424530992e+00 0 0 0
141 1 1 -5.0003039872218515e+00 -2.4753373763584889e+00 -6.3953954399738251e+00 0 0 0
142 1 1 -5.6556811366924595e+00 -1.8222260878706451e+00 -5.9804170787955258e+00 0 0 0
143 1 1 -4.7732427370206763e+00 -1.4584016373582729e+00 -6.2151239269203566e+00 0 0 0
144 1 1 -4.4332657331589367e+00 -1.5976851674176074e+00 -5.3118187306318640e+00 0 0 0
9 1 1 -6.8900991474207329e-01 -1.1356793086354393e+00 -1.9279570523583132e+00 0 0 0
136 1 1 -5.4108087461931644e+00 -4.5982770133070376e+00 -3.7110653812234191e+00 0 0 0
134 1 1 -6.6049399721095634e+00 -4.8990763042243737e+00 -3.7031452041264035e+00 0 0 0
133 1 1 -6.2051551726939884e+00 -5.7139025221623809e+00 -3.3853282277691648e+00 0 0 0
138 1 1 -5.5948591069350968e+00 -4.3446223695028987e+00 -4.9746935523456219e+00 0 0 0
132 1 1 -6.4250052641790427e+00 -6.4390360786957563e+00 -2.7060496598343469e+00 0 0 0
129 1 1 -5.4877624229662150e+00 -6.6990787638205678e+00 -4.0900200361910399e-01 0 0 0
139 1 1 -5.9487163606383291e+00 -3.9117588975011062e+00 -5.7305156773275279e+00 0 0 0
140 1 1 -5.6238392232578223e+00 -3.0418804075279837e+00 -5.9229359874388940e+00 0 0 0
146 1 1 -4.9213190630985428e+00 -1.9800795821773645e+00 -3.8967038739271724e+00 0 0 0
145 1 1 -5.1958957497917853e+00 -1.9799008142392589e+00 -4.8864853505555326e+00 0 0 0
12 1 1 -1.7687961604104524e-01 -2.3782671524802739e+00 -5.8410407785167651e-01 0 0 0
130 1 1 -5.6654287475719229e+00 -6.1634301692491116e+00 -1.1408445732733870e+00 0 0 0
131 1 1 -5.8672053642737048e+00 -6.7718069855965268e+00 -1.9771207227576297e+00 0 0 0
148 1 1 -3.7425787469393881e+00 -1.8498340878087394e+00 -3.7607868796359094e+00 0 0 0
117 1 1 -8.2084973984664367e-01 -5.8751029408516278e+00 -3.2809852456720912e-02 0 0 0
147 1 1 -4.4485789649512517e+00 -1.1841851380663380e+00 -3.6601529148485574e+00 0 0 0
149 1 1 -2.9576836703840250e+00 -1.6246057218520489e+00 -3.0960260195674012e+00 0 0 0
13 1 1 -1.1204426061491390e+00 -2.6642007744666198e+00 -6.1560084593636177e-01 0 0 0
11 1 1 -7.9352331335277626e-01 -1.6317384726924913e+00 -4.2478084779151437e-01 0 0 0
14 1 1 -1.3674511695761693e+00 -3.2641269231377534e+00 -1.3932677613648743e+00 0 0 0
10 1 1 -1.2053214768078995e+00 -1.1342331532257215e+00 -1.1064278880326406e+00 0 0 0
8 1 1 -1.4525430166748987e+00 -6.2793249072499591e-01 -2.1522331249550573e+00 0 0 0
150 1 1 -2.7225479727542541e+00 -6.0665788422190525e-01 -3.3989320617279497e+00 0 0 0
156 1 1 -7.6925358191697757e-01 -2.3172295411962385e-01 -5.9175891240599499e-01 0 0 0
15 1 1 -1.5701491379066910e+00 -4.0079483254654997e+00 -7.8631322283815275e-01 0 0 0
122 1 1 -3.8117997554787939e+00 -5.5640840897043677e+00 1.5048725833045278e+00 0 0 0
28 1 1 -6.0304117397413912e-02 -5.4684089783624428e+00 4.5541168850500355e+00 0 0 0
19 1 1 -2.8265536552585409e+00 -4.0545109314958072e+00 1.9468963607600491e+00 0 0 0
120 1 1 -2.4999815197594502e+00 -4.5802091810714307e+00 5.1912346838710388e-01 0 0 0
118 1 1 -1.5738741091118149e+00 -5.2939041212454132e+00 3.7640238008690756e-02 0 0 0
119 1 1 -2.2299338065321592e+00 -5.4790025826271629e+00 7.3199867412017505e-01 0 0 0
121 1 1 -3.1693002021478591e+00 -4.9770644016144487e+00 1.1287065316365283e+00 0 0 0
116 1 1 -3.3166720454929827e-01 -6.3906442710425786e+00 5.5620953266109685e-01 0 0 0
115 1 1 -5.4255979236304686e-01 -6.4168197274762022e+00 1.4755123901080307e+00 0 0 0
21 1 1 -1.7096420267496995e+00 -3.0735436453216041e+00 2.3744153709728515e+00 0 0 0
20 1 1 -2.5917493122470918e+00 -3.3152786384770803e+00 2.5610321128099263e+00 0 0 0
22 1 1 -1.9446957586120277e+00 -2.3934888290236538e+00 3.0058441293761891e+00 0 0 0
18 1 1 -1.9024853712800112e+00 -3.9476652573766415e+00 1.7970907201361750e+00 0 0 0
123 1 1 -4.4097100163115757e+00 -6.0769472980329233e+00 2.1439049285537632e+00 0 0 0
24 1 1 -9.4368888460956124e-01 -2.9468639874878759e+00 3.7680234031411945e+00 0 0 0
23 1 1 -1.5293547419955262e+00 -2.2424795473383239e+00 3.8800065573898643e+00 0 0 0
17 1 1 -1.2319178352763960e+00 -4.0508463701065267e+00 1.1058353547176594e+00 0 0 0
113 1 1 -7.3144351946501296e-01 -5.6492366464233328e+00 2.9489686322542017e+00 0 0 0
16 1 1 -1.6052034010224241e+00 -4.0375378630887839e+00 2.5395307287697633e-01 0 0 0
25 1 1 -2.3222990881910699e-01 -3.5253917742769700e+00 4.2562255244778360e+00 0 0 0
124 1 1 -4.8759862253038095e+00 -6.8335920358985112e+00 2.3866556854896781e+00 0 0 0
127 1 1 -4.6339647914357309e+00 -6.9790248357902813e+00 4.8073745990686351e-01 0 0 0
27 1 1 -6.0326053905106654e-02 -4.8972898537396778e+00 5.3610985480627509e+00 0 0 0
112 1 1 -4.8869783334497713e-01 -4.8494978726171398e+00 2.5315531269768967e+00 0 0 0
26 1 1 -2.2474527051084076e-01 -4.3302743929780858e+00 4.6420986335290184e+00 0 0 0
125 1 1 -5.1346878911286336e+00 -6.6410981794957182e+00 1.4769962057928085e+00 0 0 0
126 1 1 -4.3364900740599195e+00 -7.2093077003670967e+00 1.3771803822462192e+00 0 0 0
128 1 1 -5.5809660175759799e+00 -6.7946456980607426e+00 5.3946139944155747e-01 0 0 0
114 1 1 -6.9276513177470933e-01 -6.4849939959438281e+00 2.4851457517589428e+00 0 0 0
194 1 1 -3.1425220205035300e+00 4.2822235091179266e+00 -1.8999137606902332e+00 0 0 0
1 1 1 -7.6990052577172996e-01 3.6951809714090476e+00 -8.8268106100955257e-01 0 0 0
6 1 1 -7.7225195795282864e-01 9.5540767715638641e-01 -1.9483566847957434e+00 0 0 0
3 1 1 -2.1850509148262338e+00 2.8144427541887636e+00 -9.2170457380285920e-01 0 0 0
192 1 1 -3.4813111426672005e+00 5.0466211711322480e+00 -1.0541153706201905e+00 0 0 0
2 1 1 -1.2904905625578404e+00 2.8557027344841872e+00 -7.8018822402581278e-01 0 0 0
151 1 1 -2.1730203236255474e+00 1.0914049200685247e-01 -3.0543189315918347e+00 0 0 0
153 1 1 -2.6259455448237934e+00 1.2730228265665244e-01 -1.3452467089397999e+00 0 0 0
154 1 1 -1.8194811985588955e+00 5.7019336662058751e-01 -1.1496285705327431e+00 0 0 0
197 1 1 -1.2133391702229488e+00 4.1805578461309203e+00 -3.1376048767783966e+00 0 0 0
195 1 1 -2.8577330915555987e+00 3.7973763734885027e+00 -2.6521502195021158e+00 0 0 0
152 1 1 -2.7282772191325799e+00 1.8369325499315900e-01 -2.3495869329131192e+00 0 0 0
5 1 1 -9.8331845347168656e-01 1.8388517903386263e+00 -1.4959582383890224e+00 0 0 0
193 1 1 -3.3521400532409467e+00 5.2631280596911267e+00 -2.0179022293930320e+00 0 0 0
4 1 1 -1.8870035206515132e+00 1.9079240387301279e+00 -1.1889121509114142e+00 0 0 0
196 1 1 -2.1811620822276545e+00 3.9702183462929308e+00 -3.3006768097873134e+00 0 0 0
198 1 1 -1.0769835058663679e+00 4.0338644431316233e+00 -2.2348086132516456e+00 0 0 0
199 1 1 -5.3605550045355077e-01 4.6879566482253940e+00 -1.6283286684829559e+00 0 0 0
157 1 1 -2.2710544709062386e-01 5.1565899852942398e-01 -9.7361007737532368e-01 0 0 0
191 1 1 -4.0063757221312253e+00 5.6582617534640969e+00 -5.4351405965233057e-01 0 0 0
7 1 1 -7.5853153930459372e-01 3.6486541373259233e-02 -1.9167970053980532e+00 0 0 0
155 1 1 -1.6435726897105880e+00 2.6175359675180171e-02 -4.6044789289272298e-01 0 0 0
183 1 1 -4.2683790669191113e-01 3.5313210761439375e+00 2.3426771709882779e+00 0 0 0
184 1 1 -1.2478993226702433e+00 3.3781696841034550e+00 1.8820709057783527e+00 0 0 0
189 1 1 -3.7579287051819525e+00 6.1379411311101215e+00 2.1226145094952215e-01 0 0 0
188 1 1 -3.6384150429111783e+00 5.5634767026933298e+00 9.2983851567617115e-01 0 0 0
185 1 1 -1.8607466715673309e+00 3.8300767746836439e+00 1.3329060354085354e+00 0 0 0
186 1 1 -2.2612801574442201e+00 4.6475445829694513e+00 1.7465849449437096e+00 0 0 0
190 1 1 -4.4730057173074957e+00 5.4928348344610036e+00 2.8493157263362956e-01 0 0 0
187 1 1 -2.8323436247632672e+00 5.2345393865682368e+00 1.2995719516989994e+00 0 0 0
62 1 1 -8.1653326669461912e-01 1.3036440720837426e+00 3.5518827321338846e+00 0 0 0
61 1 1 -2.4070916994479291e-01 2.0562955505697822e+00 3.2570903149624817e+00 0 0 0
182 1 1 -1.0169714378398345e-01 3.2528732945712457e+00 1.4665924831261550e+00 0 0 0
85 1 1 3.0799567990752190e+00 -3.9837736673518229e+00 -1.7067387101220888e+00 0 0 0
84 1 1 4.0303936102932836e+00 -4.2576447948166525e+00 -1.7449229634808967e+00 0 0 0
83 1 1 4.5529423916044447e+00 -3.7504477630370330e+00 -2.3940218422348449e+00 0 0 0
86 1 1 3.1609993582731484e+00 -4.6481003388510596e+00 -1.0794501327172721e+00 0 0 0
80 1 1 5.7630315046186729e+00 -2.0900764474817173e+00 -1.1648720152127607e+00 0 0 0
87 1 1 2.4614251284590472e+00 -3.9916497477157717e+00 -9.0167809508591479e-01 0 0 0
82 1 1 4.7480190657622448e+00 -2.7832850381778274e+00 -2.5855035562332240e+00 0 0 0
41 1 1 2.1002384033295649e+00 -1.5516722769881948e+00 -9.1217517830931438e-01 0 0 0
81 1 1 5.3393014449567024e+00 -2.3207036532080236e+00 -1.9651514663635952e+00 0 0 0
167 1 1 2.8478218407581704e+00 -2.4364439122032089e-01 -4.1967777650279270e-01 0 0 0
79 1 1 5.8930152295121507e+00 -1.5113721257621506e+00 -4.1912375338523794e-01 0 0 0
40 1 1 2.4080220533880414e+00 -2.3943749429427781e+00 -7.2098118791901100e-01 0 0 0
39 1 1 3.2321981215575502e+00 -1.8667142585532943e+00 -4.8565439279903805e-01 0 0 0
43 1 1 1.1203863515713017e+00 -3.0990669993522396e-01 -5.5815837029308268e-01 0 0 0
42 1 1 1.3768361549706656e+00 -9.2702344735097519e-01 -1.1953058214212722e+00 0 0 0
88 1 1 2.5325250942465525e+00 -3.5469364441659574e+00 -4.5592392360088475e-02 0 0 0
166 1 1 2.2932930316474001e+00 -3.6748579270873932e-01 -1.2298775455838007e+00 0 0 0
38 1 1 3.7544438593633478e+00 -2.5126290394158515e+00 -7.9319613962584481e-02 0 0 0
71 1 1 2.4780767854589927e+00 -2.9028407504062953e-01 4.4808519196074492e+00 0 0 0
75 1 1 3.5820249531834158e+00 -1.4925499177032286e+00 2.1632510725675194e+00 0 0 0
89 1 1 2.0703731115154804e+00 -3.0726201677821066e+00 6.6972922707455207e-01 0 0 0
103 1 1 5.1076215771308160e+00 -4.6755280555278672e-01 4.2137796188388768e+00 0 0 0
90 1 1 1.6011349555671719e+00 -2.5152006641068576e+00 1.3632939346993229e+00 0 0 0
35 1 1 3.0868624844125470e+00 -4.2777564130088068e+00 2.0509951546076088e+00 0 0 0
67 1 1 1.0278839433040128e+00 -6.6288889361914027e-01 6.2092267997298789e+00 0 0 0
74 1 1 3.4683281291136789e+00 -8.5020505036927774e-01 2.8777934281354169e+00 0 0 0
31 1 1 1.1975576469298372e+00 -5.7109491480791137e+00 2.6773282774009131e+00 0 0 0
32 1 1 1.1420010054611971e+00 -4.8672003532019641e+00 2.1813721547017715e+00 0 0 0
34 1 1 2.1987312672001607e+00 -4.6678949751390677e+00 2.0550941644328300e+00 0 0 0
33 1 1 1.5873577542871333e+00 -4.8083540575011687e+00 1.3580673711285070e+00 0 0 0
105 1 1 3.6617100184823901e+00 -1.6921863233942236e+00 4.6056630146239641e+00 0 0 0
72 1 1 2.7070679053446698e+00 -1.1314299084853712e+00 4.0787124846863394e+00 0 0 0
102 1 1 4.8507478883870077e+00 -9.6326763747470859e-02 5.0375980413605159e+00 0 0 0
91 1 1 8.8910421307502785e-01 -2.0800712060438622e+00 8.6497756962934946e-01 0 0 0
73 1 1 3.0478403722420118e+00 -2.5876459047984918e-01 3.5856625343471298e+00 0 0 0
76 1 1 4.0101105542520381e+00 -1.4307887750651669e+00 1.2947372828894581e+00 0 0 0
93 1 1 1.4965925151383606e+00 -9.1838839475297529e-01 9.3491988907306345e-01 0 0 0
36 1 1 3.2741270716151925e+00 -3.8403854294751549e+00 1.2387916104740453e+00 0 0 0
37 1 1 3.5800894308961491e+00 -3.2121993399196462e+00 5.6348600022137230e-01 0 0 0
30 1 1 9.0927297403865737e-01 -5.3874742511330709e+00 3.5798129182929896e+00 0 0 0
77 1 1 4.6731929692428942e+00 -1.2571391445814979e+00 6.5767377930430237e-01 0 0 0
111 1 1 2.2623407972221904e-01 -4.3387727237923501e+00 2.7743124204296961e+00 0 0 0
70 1 1 2.3553465046122799e+00 -3.0509710589058314e-01 5.4368702018216215e+00 0 0 0
65 1 1 5.0203661583203207e-01 -1.2157210927562641e-01 4.8457671657303756e+00 0 0 0
92 1 1 1.5873327011876228e+00 -1.7276408544096382e+00 3.3928006433233454e-01 0 0 0
78 1 1 5.5896656323150689e+00 -1.4857158704151572e+00 4.4675960282471022e-01 0 0 0
104 1 1 4.4780759304688278e+00 -1.2471396328058695e+00 4.4137627071780390e+00 0 0 0
29 1 1 1.1407834693542135e-01 -5.9808947491700728e+00 3.8577387024321435e+00 0 0 0
66 1 1 1.1993308740574824e+00 -4.9127226848638517e-01 5.3408676974401459e+00 0 0 0
109 1 1 1.8123258806090847e+00 -3.5226702264595895e+00 3.1861296065824121e+00 0 0 0
110 1 1 1.0973293484710418e+00 -4.1584173133674280e+00 3.2385610538472225e+00 0 0 0
108 1 1 2.2439053542316434e+00 -2.7715836240483585e+00 3.6170858582413863e+00 0 0 0
107 1 1 3.1429256737384783e+00 -2.5987753791280919e+00 4.0133801175671433e+00 0 0 0
106 1 1 4.0631254696161934e+00 -2.4873800593705706e+00 4.2260458530248020e+00 0 0 0
94 1 1 1.7740044315229517e+00 -4.7754462198053974e-02 1.2497238990962218e+00 0 0 0
172 1 1 4.9155810721926381e+00 1.1060415037553686e+00 -4.3276147839540985e-01 0 0 0
163 1 1 1.6564365475470828e+00 1.3134929414544378e+00 -2.3382118139363492e+00 0 0 0
164 1 1 2.5611267426096065e+00 9.7562487873005810e-01 -2.0629890950179957e+00 0 0 0
165 1 1 2.1970603437524527e+00 5.5819730652400157e-01 -1.3049040092651782e+00 0 0 0
200 1 1 3.8874710364252836e-02 4.0840336601038141e+00 -1.0475347312016328e+00 0 0 0
44 1 1 8.0201825097286172e-01 3.9110374434724560e-01 -7.9261092540881990e-04 0 0 0
162 1 1 1.7928579986318136e+00 2.1298293515769404e+00 -1.9308503491968427e+00 0 0 0
160 1 1 9.9014092353681060e-01 2.2934937274289755e+00 -9.3916073763071595e-01 0 0 0
159 1 1 1.0122606064297901e+00 1.2934416361782093e+00 -9.8575022615810715e-01 0 0 0
161 1 1 1.9270414558808109e+00 2.1350627412492940e+00 -9.4625619981478692e-01 0 0 0
171 1 1 4.9012446545450450e+00 1.6191293516832403e-01 -1.4922670159986826e-01 0 0 0
168 1 1 3.6100331895542390e+00 2.7156351484769381e-01 -4.4213594551147295e-01 0 0 0
158 1 1 4.2331889094807851e-01 8.8316554340888265e-01 -1.5502826956739058e+00 0 0 0
181 1 1 8.2815406617761422e-01 3.1739654274786075e+00 1.0563480690038429e+00 0 0 0
69 1 1 1.7674137603329334e+00 2.3904922449366406e-01 5.9666433003730406e+00 0 0 0
52 1 1 2.6299009485186562e+00 4.1846555430363486e+00 1.3762437681378028e+00 0 0 0
95 1 1 2.2601697752564682e+00 3.4843651489294503e-01 2.0358835535970679e+00 0 0 0
58 1 1 5.2820908586242044e-01 2.8119772422031759e+00 4.7215577782208946e+00 0 0 0
60 1 1 1.1264505137139549e-01 1.9798485185047239e+00 4.1399832874538918e+00 0 0 0
173 1 1 4.1461000447270555e+00 1.0300692864561078e+00 7.4602749402424715e-02 0 0 0
46 1 1 5.3607125598200189e-01 1.7982609537215291e+00 3.9961584317932791e-01 0 0 0
64 1 1 4.1392574728405790e-01 4.5492085883612698e-01 4.1034109495553928e+00 0 0 0
54 1 1 1.3268957545443465e+00 4.0435534375692148e+00 2.6073258544860360e+00 0 0 0
57 1 1 2.8127682203413040e-01 3.3475092753634819e+00 4.0060463649156528e+00 0 0 0
178 1 1 1.9407336965017867e+00 1.4761026014617760e+00 2.0463359446502620e+00 0 0 0
179 1 1 1.5108823191725980e+00 2.4359822064829402e+00 1.8391486852402665e+00 0 0 0
68 1 1 8.2084425586099441e-01 2.9978520961923899e-01 6.2644112635530824e+00 0 0 0
55 1 1 7.6027585838699963e-01 3.7698031525476425e+00 3.3019193542788967e+00 0 0 0
96 1 1 3.2061437951101741e+00 6.5320361413680450e-01 2.4043829881537326e+00 0 0 0
177 1 1 2.1847882908781608e+00 1.4143411806650039e+00 1.0989041360786491e+00 0 0 0
175 1 1 3.9491634186784617e+00 1.2291530682507308e+00 1.2420225948531733e+00 0 0 0
51 1 1 2.1365362434867348e+00 3.8162645153073362e+00 6.4027484421085812e-01 0 0 0
176 1 1 3.0925690204128706e+00 1.4963813985595893e+00 9.8586468032009678e-01 0 0 0
56 1 1 1.2109919001819427e+00 3.1486314591347186e+00 3.9825831985914810e+00 0 0 0
180 1 1 1.7740797426664296e+00 2.8410906961250011e+00 1.0010278809902271e+00 0 0 0
101 1 1 5.5320052150882022e+00 4.9403135349991745e-01 4.5408644409505365e+00 0 0 0
47 1 1 5.3394883874473810e-02 2.5393438530296080e+00 2.7980870355727237e-02 0 0 0
97 1 1 3.8018312505368663e+00 1.4538446030038665e+00 2.4714169592036845e+00 0 0 0
98 1 1 4.5383748742353722e+00 7.3746217692945393e-01 2.6415518857048657e+00 0 0 0
100 1 1 4.8902259633225524e+00 8.4789563127544476e-01 3.9607485986819890e+00 0 0 0
99 1 1 4.9310962776450324e+00 1.4626659006371752e+00 3.1896674535874925e+00 0 0 0
53 1 1 1.8218187546176436e+00 4.2094309439200090e+00 1.8367151792999328e+00 0 0 0
174 1 1 4.4194034112856766e+00 1.8123132239109785e+00 6.1639868152685562e-01 0 0 0
48 1 1 9.4200922340451743e-02 3.4370285277769188e+00 2.9918187103159993e-01 0 0 0
63 1 1 1.5600571484875517e-01 1.0376305316095438e+00 3.4699640828080343e+00 0 0 0
59 1 1 8.2984958702599232e-01 1.8464013763446119e+00 4.6545531834790257e+00 0 0 0
169 1 1 3.6618902785670189e+00 1.3969256388069620e-01 5.4882616417544539e-01 0 0 0
170 1 1 4.6148262518779584e+00 8.8591407710069472e-03 7.2113746961828884e-01 0 0 0
50 1 1 1.3852091928061523e+00 3.8763792587055868e+00 7.6047676253586438e-02 0 0 0
45 1 1 6.2489519358146305e-02 1.0579380611015370e+00 4.8056490155006057e-02 0 0 0
49 1 1 5.4186723807028092e-01 4.2689733535438421e+00 6.7819595152972756e-02 0 0 0

Velocities

137 -3.8707471734339516e-01 -1.5510510360637715e+00 -1.0540734880467115e+00
135 7.3865608107973457e-01 4.7808485519504917e-01 1.9708590127970771e+00
141 -1.0646553761189512e+00 -2.7265317854293647e-02 -1.3389316802443266e-01
142 7.5404313913514237e-02 -9.0594856861274764e-01 -9.2218200866571898e-02
143 -1.3828015028963661e+00 -3.6244540242919110e-01 7.1001191568169059e-02
144 6.3485845960498233e-01 4.1543273902438435e-02 -4.3942840378679815e-01
9 2.6856333619573713e+00 1.8229924942847342e+00 1.7465763199794294e-02
136 -4.1686851224237836e-01 -5.4382263321110413e-01 1.5043085887504202e+00
134 -1.8071506513416766e+00 1.3699296005843937e+00 1.6434239561380759e+00
133 4.3665451698644026e-01 3.4082433539238377e-01 8.6539634994328418e-01
138 -1.7894390820497512e+00 -1.0385911872903959e+00 2.2522329285767886e+00
132 1.1432868037103463e+00 1.1550901197908245e+00 2.4880354537087274e-01
129 -5.1842406493060411e-01 3.1414571525735124e-02 2.5029146257796162e+00
139 -7.6119553836425191e-01 -2.0622556269078616e+00 1.6160784322020576e+00
140 8.7052827176808983e-02 -1.1921002381962891e+00 -6.2782790481865014e-01
146 -9.5927987812048310e-01 1.3741884423280202e+00 8.9519007760918445e-01
145 -5.0898601494592066e-01 -1.9921009849774676e-01 7.8434998003904166e-01
12 1.6071240467885886e+00 -5.2928287721919959e-02 4.7150523375155423e-01
130 5.0313509562722680e-01 2.9159440435577633e-01 -5.3246295114599229e-01
131 -1.6509213547430288e+00 6.9735582780849653e-02 4.1992901884843292e-01
148 -6.2265157678713001e-01 -3.3581762841171681e-01 6.9957108757426634e-01
117 -3.7890228178209334e-01 -6.3134249328401126e-01 -3.0061617454797945e-01
147 -5.2305789541164738e-01 1.2996904933863787e-01 4.6965130232203683e-01
149 -9.1721740443419097e-01 1.1365197310660529e+00 1.0418880418037588e+00
13 7.3793323555213686e-01 1.0117182365462660e+00 9.0264506951740764e-02
11 -2.4568360700449103e+00 -7.4100257453425522e-01 -7.9872847473386921e-01
14 8.1798963523297408e-02 -7.5273176651804941e-02 -1.7275841314153817e-01
10 -5.1379129570633808e-01 -1.1039951524050586e+00 2.6778000996492768e+00
8 1.6780050902612416e+00 8.7448389533259258e-02 -9.0508632117588106e-01
150 -7.1092969295395636e-01 -7.1259448670311376e-01 4.5930624985237023e-01
156 -6.6282670447313985e-01 8.4337975403395216e-01 -5.5633941246082985e-01
15 -1.2943664014612617e+00 3.3918439565612180e-01 5.7404038034720467e-02
122 -1.3224729645639373e+00 -1.1157835215475392e-02 -9.0235896326909940e-02
28 7.6227558298859999e-01 1.2083711403021504e+00 -8.9707076501133953e-01
19 3.9562124122958497e-01 -5.9109814175117381e-01 -7.5246777211573510e-02
120 -5.7107347914984674e-01 -1.6399155395628586e+00 -1.1901732378381440e+00
118 -9.2460369023769598e-02 -9.2728163506786387e-01 -1.1526249577021455e+00
119 -5.5899915424211977e-01 -8.0802554058037956e-01 -1.1368567521583044e+00
121 -3.5800242658870635e-02 7.5528006194576849e-02 1.7286378546762073e+00
116 3.1827517767213764e-01 -5.5471425360207174e-02 1.6045773219601274e+00
115 -2.2389036369051937e-01 -9.3779874925411189e-01 1.1298239440193676e+00
21 1.8375100854006096e-01 2.2698211841881699e-03 -1.9053942242835047e+00
20 1.3228210317323963e+00 -5.2693638945696758e-02 -4.5973314640235019e-01
22 -2.6080005937106582e-01 4.7930950831977259e-01 2.4900419754291622e-02
18 -3.0187162234218767e-01 3.9098342417343873e-01 -1.6580003767800429e+00
123 2.1888049389143113e-01 -1.0007946686788431e+00 -1.8395826638051524e-01
24 4.9093026210198953e-01 -9.4389473656049938e-01 -3.4050695412791415e-01
23 -5.2543512134805992e-01 5.5629879421467215e-02 -9.4893299151302413e-01
17 7.8382040476136644e-02 -3.3287255198278776e-01 -2.2078829816425372e-01
113 -4.1426758891084201e-02 -1.0452134691796200e+00 7.5397812487798677e-01
16 1.6225464432400576e+00 -1.6532289580674762e+00 7.2160736296506389e-01
25 5.9129696492782646e-01 1.1969876834440556e+00 9.8647605481403278e-02
124 -8.3631338645256159e-01 4.7674341925942842e-01 1.4512266531940361e+00
127 -5.5844767509394266e-01 9.8872699297320610e-01 2.7208886911778626e-02
27 1.5704808826907557e-01 1.3508634968391969e-01 1.5206860628946473e+00
112 -3.3335626508044902e-01 1.4401280920441912e+00 1.1239827684704751e+00
26 -5.6571061780446519e-01 -1.9894041938737406e+00 1.1369594712491193e+00
125 9.9581418680794731e-01 -2.4504857313486759e+00 -7.9492177477942416e-01
126 9.2980486325068823e-01 5.2091251434957880e-02 1.3596149671601232e+00
128 8.5873260054112888e-01 9.6592681102795031e-01 2.0184466146044749e-01
114 -2.2857213967224710e+00 1.1919729177830756e+00 -2.4903259961752086e-01
194 -5.3331734490893901e-01 -9.8071702634115143e-01 -1.2112043333148161e+00
1 -7.2315179030584287e-01 -1.9474037293441882e-02 -2.1148875649687002e+00
6 -7.4231146448593099e-01 1.2390234168572858e+00 4.0004819346940423e-01
3 5.4584273282948459e-02 -1.1554931463439533e+00 -6.7316323353732310e-01
192 1.3764682905483712e+00 -1.0334751311295061e+00 3.2650813390323036e-01
2 8.2429421413683923e-02 -2.6696716350683791e-01 -1.1611882784082468e+00
151 -1.4355790886864379e+00 -7.9913155902467864e-02 -1.8807593752808976e-01
153 7.2165031839645022e-01 5.7150920794174687e-01 -5.2462985042368415e-01
154 -1.1375108290992397e-01 9.0617943662395950e-02 -7.3156310850026551e-01
197 1.0816276645749048e+00 -2.1232303138541715e+00 3.9152409763785306e-01
195 -8.4084782308565542e-01 7.2697959640904997e-01 4.1853042253039607e-01
152 1.1423553224885277e+00 -2.9456708159880240e-01 2.8683351872065952e+00
5 8.7963702798752574e-01 -1.8955776993965574e+00 -1.1692205540703000e+00
193 -7.8349186365189349e-01 -1.4089970174818987e+00 1.0013545801868955e+00
4 -1.0865040364005789e+00 4.5126625657097658e-02 5.1020408232499825e-01
196 -1.6849130685490581e+00 1.1262592266273876e+00 1.0039365820350301e+00
198 2.4306465083390638e-01 -8.0625438987900833e-01 1.1790821663080764e+00
199 1.7765199717613769e-01 -2.7182938751533947e-01 1.3422335420679019e+00
157 -5.3746317215683209e-02 8.0716043022893091e-01 7.0923711723112393e-01
191 5.0452400964101241e-01 7.9040181694673672e-01 -4.2599275142150428e-01
7 6.2615145122297433e-02 -1.2084756557869780e-02 -1.5315471529962736e+00
155 -4.5715836818430133e-01 1.7192820912650877e+00 -1.2165000588751014e+00
183 -7.1702989320361299e-01 9.2550189847670494e-04 9.5257813811827208e-01
184 -6.8369399975184986e-01 -1.5052571278702844e+00 2.7255235746661055e-02
189 -1.3746193196976886e+00 -2.6427514081950303e+00 -2.9074307651688069e-01
188 7.0248999152946676e-02 5.4872990847249259e-01 1.2555734095220141e+00
185 -6.7008625775643293e-01 -3.6556148206460337e-01 1.8361374100123424e+00
186 7.9280995410577881e-01 2.0729308222397314e-01 9.8954386126554317e-01
190 9.7461763752629027e-01 1.4431215668694364e+00 1.4178879424318036e-01
187 1.0015796541789526e+00 -4.6340752241781663e-01 1.0966102272585201e-02
62 -6.3733546562917653e-01 1.3286091198566448e+00 -9.8445597720484879e-01
61 3.9983694531832228e+00 4.4336757650356673e-01 1.4728372675371587e-01
182 2.6311902107368834e-02 -3.0579687017273831e+00 -2.8590632847289954e+00
85 2.8349637061923405e-01 4.7412287906169875e-01 2.6246456255675965e-01
84 -3.5792368651594719e-01 1.3182345582605755e+00 4.7265536614765513e-01
83 -1.1308387553577506e+00 1.5140869526958882e+00 1.3003829065437702e+00
86 1.4894378951602125e-01 -1.4378711017374666e+00 -9.2345374681923365e-01
80 -1.2133283417029621e+00 -7.9656262989663940e-01 9.6239458141567424e-01
87 -1.2375733750465132e+00 -5.6677902284544512e-01 -8.9800038907542190e-01
82 -1.0741297684405355e+00 -1.4747313336633201e+00 -1.5559235641825442e+00
41 -2.9491678522048337e-01 1.6728078829354676e-01 -1.0276404833174808e+00
81 5.2755557938232189e-01 5.9726074785133110e-01 -6.9889926375480832e-02
167 1.7439207517507578e+00 -4.0455920293814551e-01 1.0870872347507410e+00
79 7.5262041674082014e-01 -3.7154778291592927e-01 -6.8110456836033229e-01
40 -1.1375356585812599e+00 1.6370298597212753e+00 1.8106149736187089e+00
39 1.2319011256247265e+00 1.6764668974149446e+00 -1.0649767588686541e+00
43 9.0548834284542259e-02 -7.1561527452145002e-01 -2.2620844473480911e-01
42 1.4174399600639869e+00 -4.0982168256735230e-02 7.9216554564255748e-02
88 9.7307209440404430e-01 5.7359000095562651e-01 1.2158036279862461e+00
166 1.6484555152765870e+00 2.6374840335938626e-01 3.8825946326591543e-01
38 1.8936181743038216e+00 1.2481990101294804e+00 -3.3091655898946470e-01
71 -3.4348332548513183e-01 1.6729247444942650e+00 -8.7055140867090952e-01
75 9.3845502621592913e-01 -1.1577136104083561e+00 -5.9543071308172979e-01
89 -5.5033088977534073e-01 8.8769832835635598e-01 1.9909393080202969e-01
103 -1.0860846868535494e+00 2.6400626228303309e-01 1.8286984409798208e+00
90 9.7135514919277499e-01 7.4047078875228522e-01 -1.5955033389296018e+00
35 1.5865675227533638e+00 -2.3590518107174921e-01 -8.7244539919017772e-01
67 -1.8504536074702729e-01 -2.1376060217924986e-01 -3.4958186930280261e-01
74 3.6531204777171916e-01 6.4556395348948159e-01 -1.0141372256086079e+00
31 9.7999245461768847e-01 -2.9608041381225592e-01 1.4682344710786399e-01
32 -4.7922458138225876e-01 -7.8869781736605260e-01 -3.7714608160238366e-01
34 1.0797925437917635e+00 2.4992960674869349e+00 6.0584019238769837e-01
33 -1.5474623110984933e+00 -1.6406514982583809e-01 5.5198787751884515e-01
105 1.9028022082570768e+00 -1.3289184504228087e+00 4.9546164248955404e-01
72 -1.5718495473824969e+00 1.2360439435757198e+00 9.2013560946093031e-01
102 2.3651677739897838e+00 1.1794960434531889e+00 7.4128211273101241e-01
91 -1.4973777472316256e+00 -2.7356549773264793e-01 7.3046417271000674e-01
73 2.2404942384513524e-01 -1.4038703895439357e+00 -1.2928496671013205e+00
76 -1.0862315288022049e+00 2.3861542283703829e-01 -5.5028056447467555e-01
93 -2.3388767715683123e+00 -6.0106913429246012e-01 -9.4006253934883377e-01
36 1.6659448120272444e-01 2.0852456722325989e+00 3.4499914551241656e-02
37 -4.9016594032696931e-01 1.2027016400376478e+00 1.6563989879147178e+00
30 -5.3579977137310375e-01 -1.7847586358672356e+00 2.9520186586411604e-02
77 -2.8406088568805365e-01 -8.8256186830195182e-01 6.8114331244228754e-01
111 -1.7608060521866387e+00 -7.7486118766541268e-01 3.8658229711955494e-01
70 8.6701816115568675e-01 -3.2121134788024935e-01 -1.2676724388530194e+00
65 -7.2253500116640634e-01 8.8262959857368783e-01 -9.2204020161501449e-02
92 -1.0615861301839835e+00 8.7822937293202313e-02 1.3368010553811374e+00
78 -3.9391755303251974e-01 -1.1629409519087621e+00 1.1109686979908497e+00
104 -6.9093234992798991e-01 -2.6805250758101007e-01 1.0168102671458934e+00
29 -1.3425090036210630e-01 7.3164160657228572e-01 9.2464303457705399e-01
66 1.3163687958811016e-01 1.3835227303764639e+00 -9.2735451622842335e-01
109 6.4626218059849838e-01 1.9297408544978478e+00 -2.0161762521221185e+00
110 -2.4622318211810823e-02 1.9249296532459601e+00 -1.1969885801415165e+00
108 -3.2577945520290408e-01 2.8926496882013336e-01 -2.6957043761445409e-01
107 2.4969250611059692e+00 1.4098606493037343e-02 -6.5789908783751949e-01
106 -2.4391162868019505e+00 5.4853609048020457e-01 1.8021940906377634e+00
94 -9.8714436858291815e-02 8.5227473133747692e-02 1.4640094193085780e+00
172 -4.4606791850022115e-02 -1.0409505235476564e+00 -3.8180152562224401e-01
163 5.4663850086469723e-01 -1.6377345817350413e+00 -3.4482047770219010e-01
164 -6.2335998859911701e-01 -6.6446082607103252e-01 -4.4106076760698121e-01
165 4.1246916673753925e-01 -1.5928402882381426e-01 1.1112069242912819e+00
200 1.3768750960213803e+00 5.8272955336547250e-01 9.9329110118132435e-01
44 -8.0888610315541243e-01 -1.4953151824337918e-01 9.8389833773095181e-01
162 4.7248951419528612e-01 -1.0340626476098569e-01 5.0311595721096480e-01
160 -2.3132927688808438e-01 -2.9894988721630350e-02 1.3082306347394963e+00
159 -2.5490396953801925e-01 7.1137517107252113e-01 1.3763432798958011e+00
161 -4.4287041939949789e-01 -9.2952993038550247e-01 6.1694354485298120e-01
171 1.7176010945369077e-02 4.4386212630724409e-01 2.1331123754305139e+00
168 -3.2155056619068378e-01 -1.1270081514112225e+00 5.5380643645670979e-01
158 6.8482041107705827e-01 -3.7807393786742904e-01 5.6661521722118113e-01
181 -2.8830021594486649e-01 -1.0741779907518536e+00 7.7934918616577820e-01
69 9.5292280390892581e-01 -2.4209983690008627e+00 7.9056415074269648e-01
52 9.5811006875416549e-01 -2.9327486591443691e-01 -5.3535973968314743e-01
95 2.0032378213370325e+00 -4.5696542976005172e-01 8.7481677538207636e-01
58 1.0015161537440536e+00 2.2951227880977694e+00 2.6088134314414257e+00
60 1.6982695059353010e+00 -9.8959024652038163e-01 -1.3345676158042816e+00
173 -5.1572382338982270e-01 -1.4258133602938492e+00 -1.0727134653232118e+00
46 1.3021763730897795e+00 2.0118282127296667e+00 -7.8819245072592437e-01
64 1.4552489864961999e+00 1.2346267634116155e+00 -2.3180828672449976e+00
54 -4.6123804655298133e-02 1.3647368261462534e+00 1.1208901259006536e+00
57 -2.2661578829564577e-01 1.1948446042512679e+00 -7.2150251711229285e-01