LAMMPS data file via write_data, version 12 Dec 2018, timestep = 20000

100 atoms
1 atom types
100 bonds
1 bond types
100 angles
1 angle types

-2.5000000000000000e+01 2.5000000000000000e+01 xlo xhi
-2.5000000000000000e+01 2.5000000000000000e+01 ylo yhi
-2.5000000000000000e+01 2.5000000000000000e+01 zlo zhi

Masses

1 1

Atoms # angle

61 1 1 -1.4489525937158394e+00 4.3879215136367256e+00 -7.4669035570866749e+00 0 0 0
60 1 1 -1.6471725649321787e+00 3.6615804799091616e+00 -6.9822054547137329e+00 0 0 0
63 1 1 -1.0335622321533373e+00 3.4661906969578058e+00 -7.9038959832033759e+00 0 0 0
59 1 1 -1.4080185390621973e+00 3.6801123603762176e+00 -6.0537885427953375e+00 0 0 0
89 1 1 -1.4898353253845176e+00 3.7128174397465949e+00 -2.1627377410050452e+00 0 0 0
83 1 1 -9.5051307996525025e-01 6.0328032755984742e+00 -3.7062305157787558e+00 0 0 0
88 1 1 -2.3091762751378555e+00 4.0512748727059043e+00 -2.4047699027152731e+00 0 0 0
87 1 1 -2.5063604847975576e+00 4.6558480543322496e+00 -3.1244700448566749e+00 0 0 0
84 1 1 -6.1176706384506241e-01 5.1856136611339965e+00 -3.8857089419434359e+00 0 0 0
90 1 1 -1.3622555249693571e+00 3.7119891006550354e+00 -3.1141411668967396e+00 0 0 0
91 1 1 -1.1749746911121335e+00 3.1930941352308566e+00 -3.9502501248114363e+00 0 0 0
86 1 1 -1.8545779718308786e+00 4.9362616748966426e+00 -3.8497623959009677e+00 0 0 0
85 1 1 -1.1797149660108492e+00 4.7580630576106495e+00 -4.5197860302234316e+00 0 0 0
62 1 1 -1.7364762957703506e+00 4.0528017025887566e+00 -8.3015291408632184e+00 0 0 0
36 1 1 -7.7633340273588680e-01 4.2905302453492160e+00 -1.2779250199680794e+00 0 0 0
37 1 1 -5.9132748054559381e-01 4.8134985144563487e+00 -4.9816912082616821e-01 0 0 0
58 1 1 -7.2946353345854920e-01 4.3256595291171802e+00 -6.1515355004028516e+00 0 0 0
64 1 1 -1.6686652509203388e+00 2.9675039955065947e+00 -8.3490669101892774e+00 0 0 0
81 1 1 -1.8841440906744059e-01 6.5166340655002815e+00 -2.1002280747220268e+00 0 0 0
16 1 1 -9.1898022026743409e-01 1.1929721361364178e+00 -7.8611266938250566e+00 0 0 0
13 1 1 -2.3043775179614506e-01 2.3578444961342639e+00 -5.6534767692379209e+00 0 0 0
82 1 1 -7.6146675063303804e-01 6.4141180698165350e+00 -2.8545776820049413e+00 0 0 0
14 1 1 -8.5174548023713914e-01 1.8685368517760161e+00 -6.1537837851268407e+00 0 0 0
17 1 1 -7.9586382886313919e-03 1.3346803385883437e+00 -8.1541796610799437e+00 0 0 0
15 1 1 -1.1777249022292580e+00 1.5329182080347523e+00 -7.0299835357092988e+00 0 0 0
92 1 1 -2.2528877446385165e-01 2.9658779355654348e+00 -3.8048661531316550e+00 0 0 0
65 1 1 -8.1407104603432556e-01 2.4199723114704450e+00 -8.3085956849259919e+00 0 0 0
40 1 1 -1.6179714932915404e-01 5.0230042188546795e+00 1.9695817454109363e+00 0 0 0
18 1 1 7.8715726357448634e-01 8.3334173150498903e-01 -8.3763709815196599e+00 0 0 0
9 1 1 1.1818505947654767e+00 4.9945131245795675e+00 -6.6237367764407633e+00 0 0 0
67 1 1 3.4525318143984007e-01 3.0610536783205982e+00 -7.5913811154732027e+00 0 0 0
20 1 1 1.4611017955317953e+00 1.7969252906149582e+00 -8.0122777618746213e+00 0 0 0
66 1 1 6.5366419225677097e-02 3.0078730802657772e+00 -8.4578693619065017e+00 0 0 0
11 1 1 9.5106669791392495e-01 3.4401169186336924e+00 -6.4191257307884664e+00 0 0 0
21 1 1 2.2326561236408904e+00 2.3663300874312507e+00 -7.9950343121662799e+00 0 0 0
75 1 1 1.9257913694979287e+00 3.3543986631017075e+00 -2.6314846168790185e+00 0 0 0
22 1 1 2.6351770716496317e+00 3.2347420111737715e+00 -8.0969903593671262e+00 0 0 0
23 1 1 3.4187168156610697e+00 3.1080899524497752e+00 -7.5729268023871077e+00 0 0 0
76 1 1 2.4109565946222400e+00 3.2716018561299007e+00 -1.8444357803678466e+00 0 0 0
78 1 1 1.8575307062385253e+00 4.6711536585626181e+00 -1.6449646453918201e+00 0 0 0
19 1 1 1.7271259602304350e+00 9.0142431952422830e-01 -8.1913719921867063e+00 0 0 0
31 1 1 1.4424440282105395e+00 6.9143627060191433e+00 -4.4115898982500994e+00 0 0 0
56 1 1 1.0515300692600486e-01 5.3968877286399319e+00 -5.6250613825692497e+00 0 0 0
68 1 1 7.1845096802857911e-01 2.2767952884027212e+00 -7.2981346844576249e+00 0 0 0
25 1 1 3.1479021194346846e+00 3.9063032873463617e+00 -6.6532942114133391e+00 0 0 0
24 1 1 3.3338183914202659e+00 4.0499743596309647e+00 -7.5535698130174840e+00 0 0 0
8 1 1 1.1176575758305591e+00 5.5107197703398567e+00 -7.4194590175514339e+00 0 0 0
7 1 1 2.0027323489037623e+00 5.9644643391233245e+00 -7.2116748130282842e+00 0 0 0
6 1 1 2.7417582196440247e+00 6.3316660335751758e+00 -7.7592232860394956e+00 0 0 0
5 1 1 3.1385265450343378e+00 5.4681343333157750e+00 -7.9028409076045527e+00 0 0 0
2 1 1 3.8477034020031264e+00 3.8211433361710898e+00 -8.5255126859662145e+00 0 0 0
3 1 1 3.7084668372580616e+00 4.7211929587002750e+00 -8.8563355308972351e+00 0 0 0
77 1 1 2.5280434530129634e+00 4.0977189151265270e+00 -1.2116819733472370e+00 0 0 0
80 1 1 3.9881324485707553e-01 5.9090267637172573e+00 -1.5805363869698448e+00 0 0 0
49 1 1 1.7817089455759572e+00 7.1547549176035687e+00 -1.5538304566058823e+00 0 0 0
10 1 1 1.0999224884627568e+00 4.0962451117596466e+00 -7.0528831820297588e+00 0 0 0
69 1 1 7.4937422934878550e-01 1.9142127824263202e+00 -6.3854757727927174e+00 0 0 0
33 1 1 8.5122831850952640e-01 5.5105865442013835e+00 -3.1865902561598003e+00 0 0 0
26 1 1 2.5832152128606620e+00 4.6222415565186941e+00 -6.9395318978163152e+00 0 0 0
99 1 1 4.6464806711763584e+00 4.4636989855362170e+00 -6.2438560092217097e+00 0 0 0
27 1 1 2.6749499685301377e+00 4.8781317498731616e+00 -6.0115834961019932e+00 0 0 0
28 1 1 3.3793742662567929e+00 5.5007929353692742e+00 -5.7979021073207955e+00 0 0 0
100 1 1 4.7933354303235198e+00 4.0076026988931561e+00 -7.1111741378410711e+00 0 0 0
1 1 1 4.4337763651380309e+00 3.3626706035421834e+00 -7.7719128744314041e+00 0 0 0
29 1 1 2.6676373811495009e+00 5.6892456740760862e+00 -5.0957429184085958e+00 0 0 0
4 1 1 2.8509723359762851e+00 4.6329422108749139e+00 -8.4999666625911416e+00 0 0 0
94 1 1 1.3569749034071075e+00 3.8247572459551433e+00 -4.3676692564951196e+00 0 0 0
95 1 1 2.2853182602727888e+00 3.8259610025711899e+00 -4.6883626781155172e+00 0 0 0
70 1 1 1.2310402748685438e+00 1.4612841985381280e+00 -5.6738268277416823e+00 0 0 0
93 1 1 6.1593979816862332e-01 3.4578805898965133e+00 -3.9912709111241305e+00 0 0 0
96 1 1 3.0476012943333410e+00 3.3550143701754420e+00 -4.5325771093560654e+00 0 0 0
79 1 1 1.0270699658634019e+00 5.1762172268275579e+00 -1.8069310978610091e+00 0 0 0
98 1 1 4.2842273281093934e+00 3.7874628007057014e+00 -5.6603397392248143e+00 0 0 0
97 1 1 3.3715399886979585e+00 3.7403657451943082e+00 -5.3333980509895129e+00 0 0 0
32 1 1 1.0046451953047497e+00 6.1689882411638752e+00 -3.9327875239651320e+00 0 0 0
30 1 1 2.2374632676678123e+00 6.4932097745146740e+00 -4.8800545249457690e+00 0 0 0
72 1 1 2.1080270839424022e+00 2.0690254594205948e+00 -4.3424777586320813e+00 0 0 0
71 1 1 1.6688126706242019e+00 2.0982002875841506e+00 -5.1842019361019425e+00 0 0 0
48 1 1 2.6825014202477488e+00 7.3271100081781304e+00 -1.3307118809301837e+00 0 0 0
73 1 1 2.6513976063656539e+00 2.6682263928265355e+00 -3.8811483300864875e+00 0 0 0
55 1 1 8.7139091891965370e-01 5.9329668744342445e+00 -5.4537450485005392e+00 0 0 0
45 1 1 1.7749398911530216e+00 8.1310421737728440e+00 -2.1641999617055005e-01 0 0 0
54 1 1 9.1928035843627498e-01 5.2902996452579112e+00 -4.6645235534864318e+00 0 0 0
53 1 1 1.7078679186231946e+00 5.4279412606781126e+00 -4.1001307142753651e+00 0 0 0
52 1 1 2.4704441526216057e+00 5.6571199393344314e+00 -3.4902458940006023e+00 0 0 0
51 1 1 1.7356591313004648e+00 5.9037982045818360e+00 -2.8727085358841347e+00 0 0 0
46 1 1 1.9868534898981847e+00 8.5822978848722453e+00 -1.0236112511200701e+00 0 0 0
74 1 1 2.3591473428994338e+00 3.4901155071713812e+00 -3.4663405464167267e+00 0 0 0
50 1 1 2.0650932261387478e+00 6.5241868672966667e+00 -2.1814931839659906e+00 0 0 0
47 1 1 2.9183697194622771e+00 8.1049655729837191e+00 -8.7809115274576333e-01 0 0 0
34 1 1 1.6917297735198034e-01 5.2535799583376193e+00 -2.4459695529695096e+00 0 0 0
35 1 1 3.1096706570640995e-02 4.6289076530685831e+00 -1.6649286984278149e+00 0 0 0
57 1 1 2.1912598949753886e-01 4.4716926693792516e+00 -6.0275046349947035e+00 0 0 0
12 1 1 1.3974780860217068e-01 3.2306939089753954e+00 -5.9197439645946348e+00 0 0 0
41 1 1 3.8140508737002793e-01 5.7867231865584516e+00 1.9203195540798805e+00 0 0 0
42 1 1 3.4236289392425528e-01 6.1171775813495666e+00 1.0015643211110121e+00 0 0 0
43 1 1 6.1921370409909737e-01 6.9284403437554900e+00 4.9478906388078175e-01 0 0 0
39 1 1 2.4260908061604792e-02 4.7112196545199145e+00 1.0695632372556028e+00 0 0 0
44 1 1 1.4762910035451977e+00 7.3942248542368603e+00 3.5564489443549846e-01 0 0 0
38 1 1 1.2852470688176043e-01 4.7425854391666498e+00 1.1095731069003573e-01 0 0 0

Velocities

61 1.0585693735534050e+00 8.7050239799206341e-01 1.4157189157211456e+00
60 7.8748010140328162e-01 1.0023587083987162e+00 1.1789456447608369e+00
63 1.0838974438942837e+00 1.6005079068144337e+00 -6.9506706939838037e-01
59 9.5294431510920286e-01 -7.0451379465288377e-01 -4.3539662223197806e-01
89 8.8260404560612404e-01 -1.2309779921994513e+00 -1.0301098545257561e+00
83 -1.9223473660130705e-01 -1.1529996059000851e+00 5.1601698018702014e-01
88 4.0905936608484256e-01 7.0779974633422460e-01 1.1283377116828524e+00
87 -1.2583387983979257e+00 -4.4123850726407954e-01 1.4674528479275524e+00
84 2.0476348292164620e-01 -2.1865487884778032e+00 2.2942173069071803e+00
90 -2.4474187716265722e-01 1.9713561660901953e+00 2.2539899576457106e-01
91 -3.0752870965319401e-01 -1.3304999464769498e+00 -3.3845648603025524e-02
86 -1.2122364833849404e+00 -3.1819578650105262e-01 -1.6896209396126887e+00
85 -5.3561133100485969e-01 -1.4411486397009201e+00 -3.2672506299828208e-02
62 5.8066981002328066e-01 3.9316040126898577e-01 2.9544807873536882e-01
36 -2.2548371876929707e+00 -1.0609062702651018e+00 -7.4098587333406618e-01
37 2.9871152245582611e-01 6.1180955525495051e-01 -4.3934686426060088e-01
58 6.5357486944482268e-01 -5.0826150076762244e-01 1.6283988504604388e+00
64 1.0036779411994587e+00 -1.9405504915564470e-01 -2.3919003767619695e-01
81 -1.1507589272606726e-01 -1.5807923877760227e-02 6.1265628612252254e-01
16 -6.8701743543292304e-01 5.8526972664401911e-01 2.5949977694438608e-01
13 7.9372103509352876e-01 -4.0127052915240791e-01 -3.6219360414908897e-01
82 1.1126724206901970e+00 -1.6087178851392820e+00 9.2635337434233711e-01
14 4.6172099388943288e-01 7.6220576412623264e-01 -7.6930214826218879e-01
17 1.1832995328083902e+00 -2.6362950670684762e+00 -2.9676545988655134e-01
15 -2.4309718173812187e+00 -5.0988878751587940e-01 -9.7648520573607156e-01
92 2.4331061212824712e+00 1.1864851021261833e+00 -6.7890719834975732e-01
65 -2.5835504859407077e-01 -1.1316747978599762e+00 2.4950661202473620e-01
40 -1.3417536276408613e+00 -1.1839259647416562e+00 -3.5880849169849094e-01
18 1.1807183805899759e+00 1.9887275467837515e-01 2.2666796648926135e-01
9 -2.2793134330662096e-01 -2.7082398097527649e-01 2.2874123500395699e-01
67 -4.8576865401528535e-01 -7.2623020835051266e-01 1.4223134168488993e+00
20 1.1732719078378264e+00 -1.3762930559004722e+00 1.1937500614596268e+00
66 -7.1511989767176876e-01 4.1456769957079787e-01 6.7277848376828608e-01
11 1.0654091354824868e+00 -1.7430861736973866e+00 -1.0638640137900233e+00
21 -1.5706587236257634e+00 6.8080280126560433e-01 1.2042798073431860e+00
75 -1.2866276929216253e-01 2.0732487051728185e-01 -7.2994759694522149e-01
22 -4.4954058683048459e-01 6.3560268220543326e-01 -9.0645739020027627e-01
23 2.2002518028470075e-01 5.3031197615243986e-01 9.3941518379853106e-01
76 6.9456495954057373e-01 -1.2221866063878766e+00 1.0503944041503861e+00
78 -4.2515413602949820e-01 -2.0454956883639568e+00 4.9993389680022426e-01
19 -1.3773295685982350e+00 2.3733558535804439e-01 1.7401929378856267e+00
31 1.7975635970097927e+00 -7.1385035456184209e-01 -3.1611057981462592e-01
56 -1.2981834683537770e+00 3.0232908614532361e+00 9.5016134797731788e-01
68 1.7101884332442088e-01 9.5943641570778837e-01 6.0615322944771699e-01
25 -3.7430400587621437e-01 7.8316909446405825e-01 2.7398837915247198e-01
24 -9.8307085137274389e-02 8.3875948317457136e-02 5.2272238635473978e-01
8 6.3595118498070102e-01 -9.5573533989331161e-02 -1.0500001908575012e+00
7 1.5166549539694516e+00 -4.4201819094590244e-01 -1.1640155210181786e+00
6 -4.7043882130993492e-01 -7.7087706973836190e-01 -1.1482212883393994e+00
5 -5.5819237579701841e-01 -8.5276705012994836e-01 5.9461462800270842e-02
2 -4.9735184386311487e-01 -1.2631351774939742e-01 9.7030089724348623e-02
3 -7.9263986019083160e-03 1.4499862408356896e+00 -3.0310731659239361e+00
77 1.5222931255083352e+00 4.1400901536444684e-01 -1.9269671537168271e+00
80 1.2813081918581881e+00 9.8191074135768108e-01 3.7258928900455079e-01
49 -2.8934686938981102e-01 -6.9977817129844189e-01 -9.9929620958663395e-02
10 6.5824955410417940e-02 -2.7226863312145599e-01 3.7886778008838501e-01
69 -5.5642707127193025e-01 3.8079167298994127e-01 -8.5933794758591753e-01
33 -1.2599325544093707e+00 8.7435207013188121e-01 1.2694745014468096e+00
26 -6.0688519429755317e-01 1.3602508340302981e+00 -9.6785076039282991e-01
99 8.6277244618063165e-01 6.6362039669985784e-01 1.4744182189410324e+00
27 1.2620218052241681e+00 -7.0906598959475864e-01 -1.5771742710979753e-01
28 7.9532113149580375e-01 -2.8616288396046768e-01 1.7942376357836827e+00
100 4.2035848426318217e-02 -6.1478577125148359e-01 -1.9850858834965632e-01
1 5.2114043193160087e-01 6.9253746101428770e-01 9.6571872921866730e-01
29 3.8365902772142024e-01 -1.1755963443884443e+00 -1.3581420605074257e+00
4 -4.3312008794021467e-01 -9.9737660676727635e-01 5.2999477765413944e-02
94 -6.8361603509487001e-01 -1.0036777558339436e+00 5.6289437778433671e-01
95 -2.5059808275326023e-01 1.9637123925279696e+00 1.5731955577660388e+00
70 2.3746592823019136e-01 6.7834777287371706e-01 -1.6386061789483819e-02
93 8.0567517556462964e-02 7.1136597687157876e-01 6.9414604352912038e-02
96 3.7971021079499218e-01 -8.2353019980208705e-02 9.4194221081820551e-01
79 1.0921568337972405e+00 7.4470030743325122e-01 1.4681290853039630e-01
98 6.9777000840353065e-01 -3.2121949611564016e-01 -1.5508744738254587e+00
97 -1.4921893510171980e+00 -1.7282051654364698e+00 9.3763026007631955e-01
32 -8.2308780415241944e-01 4.1730743794088476e-01 1.8358427581217229e-01
30 8.1323215312518116e-01 1.3913109092047096e+00 -1.9903016175386468e-01
72 -8.1908384725728089e-01 1.4041560855831259e-01 -1.0744011184892435e+00
71 -1.1328446162502321e+00 6.9417498847847647e-01 -1.0748621431555632e+00
48 8.9403363847771222e-01 -1.6979338713526126e+00 4.0904595764261825e-01
73 -5.3816322031113795e-01 1.6228800340456042e+00 -6.4354453020240510e-01
55 -5.1181897319013769e-01 -2.0184102469146550e-02 9.5032514131846590e-01
45 7.9831268198532856e-01 -1.3094593220442238e-01 1.2529668845086070e+00
54 -7.3781003005689538e-01 1.0548631944384148e+00 3.2705413392707772e-02
53 1.0647811484783247e+00 -1.6271465601349355e+00 6.3945334080877014e-01
52 4.6375373499246964e-01 2.8133172237714599e-01 -6.5022877284695890e-01
51 -1.1653290798859663e+00 2.3888565200857137e+00 1.8090769602564833e+00
46 -1.3011503319250577e+00 -9.8912408038241167e-02 -9.2883542665297247e-01
74 -7.3583946902163688e-01 5.8682243981059368e-01 1.1705824974093679e-01
50 2.6878622683901643e-01 -2.7999714911864410e-01 -4.9603090590381754e-01
47 -1.4599918339948676e+00 -1.2177381466750453e-01 6.0196473860948030e-01
34 -3.5057628784049472e-01 -9.2016409931974119e-01 4.4821279466058905e-01
35 5.4973825372237628e-01 1.2505213430915827e+00 -8.3657280670731404e-01
57 1.5811875008195464e+00 -4.1504795101601422e-01 -8.6207215689663885e-01
12 1.5300853778549921e+00 1.0370698568793865e-01 -1.9250597288897331e-01
41 1.2536879218512957e+00 -3.9012783600597511e-01 -1.4237254809906752e+00
42 -1.3220141182806508e-01 7.5173468131820076e-01 8.1899490744134462e-01
43 -2.3912894958522353e+00 4.3517355647739753e-01 -6.1879063406645063e-02
39 -3.5478692084755814e-01 1.0886528819339572e+00 -4.7444595635400579e-02
44 -5.0835318399909055e-02 1.1048484385295874e+00 1.3361781887439608e+00
38 1.7147502191477475e+00 1.8764928393548605e-01 1.3805688668014776e-01

Bonds

1 1 61 62
2 1 60 61
3 1 63 64
4 1 59 60
5 1 89 90
6 1 83 84
7 1 88 89
8 1 87 88
9 1 84 85
10 1 90 91
11 1 91 92
12 1 86 87
13 1 85 86
14 1 62 63
15 1 36 37
16 1 37 38
17 1 58 59
18 1 64 65
19 1 81 82
20 1 16 17
21 1 13 14
22 1 82 83
23 1 14 15
24 1 17 18
25 1 15 16
26 1 92 93
27 1 65 66
28 1 40 41
29 1 18 19
30 1 9 10
31 1 67 68
32 1 20 21
33 1 66 67
34 1 11 12
35 1 21 22
36 1 75 76
37 1 22 23
38 1 23 24
39 1 76 77
40 1 78 79
41 1 19 20
42 1 31 32
43 1 56 57
44 1 68 69
45 1 25 26
46 1 24 25
47 1 8 9
48 1 7 8
49 1 6 7
50 1 5 6
51 1 2 3
52 1 3 4
53 1 77 78
54 1 80 81
55 1 49 50
56 1 10 11
57 1 69 70
58 1 33 34
59 1 26 27
60 1 99 100
61 1 27 28
62 1 28 29
63 1 100 1
64 1 1 2
65 1 29 30
66 1 4 5
67 1 94 95
68 1 95 96
69 1 70 71
70 1 93 94
71 1 96 97
72 1 79 80
73 1 98 99
74 1 97 98
75 1 32 33
76 1 30 31
77 1 72 73
78 1 71 72
79 1 48 49
80 1 73 74
81 1 55 56
82 1 45 46
83 1 54 55
84 1 53 54
85 1 52 53
86 1 51 52
87 1 46 47
88 1 74 75
89 1 50 51
90 1 47 48
91 1 34 35
92 1 35 36
93 1 57 58
94 1 12 13
95 1 41 42
96 1 42 43
97 1 43 44
98 1 39 40
99 1 44 45
100 1 38 39

Angles

1 1 60 61 62
2 1 59 60 61
3 1 62 63 64
4 1 58 59 60
5 1 88 89 90
6 1 82 83 84
7 1 87 88 89
8 1 86 87 88
9 1 83 84 85
10 1 89 90 91
11 1 90 91 92
12 1 85 86 87
13 1 84 85 86
14 1 61 62 63
15 1 35 36 37
16 1 36 37 38
17 1 57 58 59
18 1 63 64 65
19 1 80 81 82
20 1 15 16 17
21 1 12 13 14
22 1 81 82 83
23 1 13 14 15
24 1 16 17 18
25 1 14 15 16
26 1 91 92 93
27 1 64 65 66
28 1 39 40 41
29 1 17 18 19
30 1 8 9 10
31 1 66 67 68
32 1 19 20 21
33 1 65 66 67
34 1 10 11 12
35 1 20 21 22
36 1 74 75 76
37 1 21 22 23
38 1 22 23 24
39 1 75 76 77
40 1 77 78 79
41 1 18 19 20
42 1 30 31 32
43 1 55 56 57
44 1 67 68 69
45 1 24 25 26
46 1 23 24 25
47 1 7 8 9
48 1 6 7 8
49 1 5 6 7
50 1 4 5 6
51 1 1 2 3
52 1 2 3 4
53 1 76 77 78
54 1 79 80 81
55 1 48 49 50
56 1 9 10 11
57 1 68 69 70
58 1 32 33 34
59 1 25 26 27
60 1 98 99 100
61 1 26 27 28
62 1 27 28 29
63 1 99 100 1
64 1 100 1 2
65 1 28 29 30
66 1 3 4 5
67 1 93 94 95
68 1 94 95 96
69 1 69 70 71
70 1 92 93 94
71 1 95 96 97
72 1 78 79 80
73 1 97 98 99
74 1 96 97 98
75 1 31 32 33
76 1 29 30 31
77 1 71 72 73
78 1 70 71 72
79 1 47 48 49
80 1 72 73 74
81 1 54 55 56
82 1 44 45 46
83 1 53 54 55
84 1 52 53 54
85 1 51 52 53
86 1 50 51 52
87 1 45 46 47
88 1 73 74 75
89 1 49 50 51
90 1 46 47 48
91 1 33 34 35
92 1 34 35 36
93 1 56 57 58
94 1 11 12 13
95 1 40 41 42
96 1 41 42 43
97 1 42 43 44
98 1 38 39 40
99 1 43 44 45
100 1 37 38 39
