Conformation of a closed chain

125   atoms
1   atom types
125   bonds
1   bond types
125   angles
1   angle types

-109.9008408 109.9008408   xlo xhi
-109.9008408 109.9008408   ylo yhi
-109.9008408 109.9008408   zlo zhi

Masses

1   1.0

Atoms

1       1       1     12.0937     -3.7864     -0.2257       0       0       0
2       1       1     12.3947     -2.8232     -0.4957       0       0       0
3       1       1     12.5582     -1.8157     -0.7256       0       0       0
4       1       1     12.6120     -0.7822     -0.8638       0       0       0
5       1       1     12.6249      0.2613     -0.8703       0       0       0
6       1       1     12.6053      1.2935     -0.6851       0       0       0
7       1       1     12.5547      2.2585     -0.3025       0       0       0
8       1       1     12.4703      3.1185      0.2828       0       0       0
9       1       1     12.3048      3.7905      1.0645       0       0       0
10       1       1     11.9640      4.1567      1.9786       0       0       0
11       1       1     11.4769      4.2316      2.8948       0       0       0
12       1       1     10.8410      4.0850      3.7082       0       0       0
13       1       1     10.0800      3.7875      4.3476       0       0       0
14       1       1      9.2476      3.3808      4.8219       0       0       0
15       1       1      8.3308      2.9834      5.1169       0       0       0
16       1       1      7.3590      2.6448      5.2958       0       0       0
17       1       1      6.3627      2.3723      5.4162       0       0       0
18       1       1      5.3394      2.1844      5.5179       0       0       0
19       1       1      4.3033      2.1088      5.5467       0       0       0
20       1       1      3.2594      2.1506      5.5354       0       0       0
21       1       1      2.2324      2.3085      5.5047       0       0       0
22       1       1      1.2198      2.5528      5.4600       0       0       0
23       1       1      0.2215      2.8584      5.3947       0       0       0
24       1       1     -0.7490      3.2484      5.3225       0       0       0
25       1       1     -1.7006      3.6792      5.2148       0       0       0
26       1       1     -2.6137      4.1389      5.0180       0       0       0
27       1       1     -3.4972      4.6019      4.6894       0       0       0
28       1       1     -4.3181      5.0521      4.2175       0       0       0
29       1       1     -5.1135      5.4318      3.6540       0       0       0
30       1       1     -5.8804      5.7579      3.0130       0       0       0
31       1       1     -6.6186      5.9932      2.3163       0       0       0
32       1       1     -7.3567      6.0827      1.5910       0       0       0
33       1       1     -8.1138      6.0286      0.8695       0       0       0
34       1       1     -8.8284      5.7866      0.1441       0       0       0
35       1       1     -9.4586      5.3309     -0.5511       0       0       0
36       1       1     -9.9892      4.6684     -1.1668       0       0       0
37       1       1    -10.3869      3.8496     -1.6762       0       0       0
38       1       1    -10.5886      2.8985     -2.0339       0       0       0
39       1       1    -10.6613      1.8773     -2.2119       0       0       0
40       1       1    -10.5830      0.8423     -2.2253       0       0       0
41       1       1    -10.3809     -0.1714     -2.0690       0       0       0
42       1       1    -10.0735     -1.1374     -1.8202       0       0       0
43       1       1     -9.6889     -2.0223     -1.4373       0       0       0
44       1       1     -9.2088     -2.8315     -0.9868       0       0       0
45       1       1     -8.7364     -3.6093     -0.4781       0       0       0
46       1       1     -8.2390     -4.3368      0.0863       0       0       0
47       1       1     -7.6692     -5.0078      0.6326       0       0       0
48       1       1     -7.0274     -5.6825      1.1082       0       0       0
49       1       1     -6.2857     -6.3132      1.4817       0       0       0
50       1       1     -5.4643     -6.9252      1.6580       0       0       0
51       1       1     -4.6036     -7.4862      1.5252       0       0       0
52       1       1     -3.8166     -7.9031      0.9919       0       0       0
53       1       1     -3.2564     -8.1148      0.1472       0       0       0
54       1       1     -3.0216     -8.1077     -0.8662       0       0       0
55       1       1     -3.1134     -7.8809     -1.8862       0       0       0
56       1       1     -3.4285     -7.5294     -2.8170       0       0       0
57       1       1     -3.8820     -7.1027     -3.6496       0       0       0
58       1       1     -4.3836     -6.7323     -4.4794       0       0       0
59       1       1     -4.8831     -6.4317     -5.3393       0       0       0
60       1       1     -5.3197     -6.2212     -6.2632       0       0       0
61       1       1     -5.6169     -6.0771     -7.2547       0       0       0
62       1       1     -5.7754     -5.9843     -8.2802       0       0       0
63       1       1     -5.7646     -5.9071     -9.3212       0       0       0
64       1       1     -5.5963     -5.7617    -10.3391       0       0       0
65       1       1     -5.2956     -5.4761    -11.2891       0       0       0
66       1       1     -4.9563     -5.0334    -12.1668       0       0       0
67       1       1     -4.5709     -4.4394    -12.9369       0       0       0
68       1       1     -4.2003     -3.6793    -13.5405       0       0       0
69       1       1     -3.8630     -2.7824    -13.9620       0       0       0
70       1       1     -3.5717     -1.8156    -14.2145       0       0       0
71       1       1     -3.3184     -0.8087    -14.3340       0       0       0
72       1       1     -3.1202      0.2135    -14.3750       0       0       0
73       1       1     -2.9800      1.2445    -14.3573       0       0       0
74       1       1     -2.8306      2.2695    -14.2717       0       0       0
75       1       1     -2.6962      3.2962    -14.1405       0       0       0
76       1       1     -2.5822      4.3095    -13.9367       0       0       0
77       1       1     -2.5362      5.3156    -13.6690       0       0       0
78       1       1     -2.5697      6.2877    -13.2897       0       0       0
79       1       1     -2.6835      7.1571    -12.7283       0       0       0
80       1       1     -2.8946      7.8403    -11.9669       0       0       0
81       1       1     -3.1327      8.2576    -11.0369       0       0       0
82       1       1     -3.3613      8.3764    -10.0263       0       0       0
83       1       1     -3.5472      8.1250     -9.0319       0       0       0
84       1       1     -3.5657      7.6123     -8.1196       0       0       0
85       1       1     -3.4203      6.9536     -7.3200       0       0       0
86       1       1     -3.1127      6.2450     -6.6260       0       0       0
87       1       1     -2.6458      5.5710     -5.9759       0       0       0
88       1       1     -2.0491      4.9547     -5.3711       0       0       0
89       1       1     -1.3616      4.4028     -4.8147       0       0       0
90       1       1     -0.6004      3.9330     -4.2823       0       0       0
91       1       1      0.1757      3.4770     -3.7562       0       0       0
92       1       1      0.9347      3.0319     -3.1860       0       0       0
93       1       1      1.6702      2.5896     -2.5904       0       0       0
94       1       1      2.2868      2.1101     -1.9029       0       0       0
95       1       1      2.6988      1.8136     -0.9856       0       0       0
96       1       1      2.7999      1.9640      0.0318       0       0       0
97       1       1      2.6868      2.6682      0.7758       0       0       0
98       1       1      2.4764      3.6796      0.8107       0       0       0
99       1       1      2.3470      4.4844      0.1656       0       0       0
100       1       1      2.3318      4.8674     -0.8081       0       0       0
101       1       1      2.3562      4.7706     -1.8473       0       0       0
102       1       1      2.3453      4.3286     -2.7909       0       0       0
103       1       1      2.2226      3.5751     -3.5030       0       0       0
104       1       1      1.9544      2.6097     -3.7710       0       0       0
105       1       1      1.5405      1.7730     -3.3322       0       0       0
106       1       1      1.2645      1.5188     -2.3733       0       0       0
107       1       1      1.3566      1.8060     -1.3787       0       0       0
108       1       1      1.8106      2.4254     -0.6813       0       0       0
109       1       1      2.5462      3.0429     -0.2639       0       0       0
110       1       1      3.4426      3.4801      0.0441       0       0       0
111       1       1      4.4360      3.6614      0.3048       0       0       0
112       1       1      5.4308      3.4841      0.5312       0       0       0
113       1       1      6.3234      2.9598      0.6418       0       0       0
114       1       1      6.9540      2.1322      0.6666       0       0       0
115       1       1      7.2741      1.1465      0.6895       0       0       0
116       1       1      7.3761      0.1118      0.6707       0       0       0
117       1       1      7.3213     -0.9324      0.6659       0       0       0
118       1       1      7.2414     -1.9778      0.6874       0       0       0
119       1       1      7.2365     -3.0167      0.7230       0       0       0
120       1       1      7.4517     -4.0345      0.7757       0       0       0
121       1       1      8.0231     -4.8992      0.8329       0       0       0
122       1       1      8.8884     -5.4648      0.7895       0       0       0
123       1       1      9.9041     -5.6201      0.6330       0       0       0
124       1       1     10.8597     -5.3013      0.3916       0       0       0
125       1       1     11.6147     -4.6469      0.1008       0       0       0

Bonds

1       1       1       2
2       1       2       3
3       1       3       4
4       1       4       5
5       1       5       6
6       1       6       7
7       1       7       8
8       1       8       9
9       1       9      10
10       1      10      11
11       1      11      12
12       1      12      13
13       1      13      14
14       1      14      15
15       1      15      16
16       1      16      17
17       1      17      18
18       1      18      19
19       1      19      20
20       1      20      21
21       1      21      22
22       1      22      23
23       1      23      24
24       1      24      25
25       1      25      26
26       1      26      27
27       1      27      28
28       1      28      29
29       1      29      30
30       1      30      31
31       1      31      32
32       1      32      33
33       1      33      34
34       1      34      35
35       1      35      36
36       1      36      37
37       1      37      38
38       1      38      39
39       1      39      40
40       1      40      41
41       1      41      42
42       1      42      43
43       1      43      44
44       1      44      45
45       1      45      46
46       1      46      47
47       1      47      48
48       1      48      49
49       1      49      50
50       1      50      51
51       1      51      52
52       1      52      53
53       1      53      54
54       1      54      55
55       1      55      56
56       1      56      57
57       1      57      58
58       1      58      59
59       1      59      60
60       1      60      61
61       1      61      62
62       1      62      63
63       1      63      64
64       1      64      65
65       1      65      66
66       1      66      67
67       1      67      68
68       1      68      69
69       1      69      70
70       1      70      71
71       1      71      72
72       1      72      73
73       1      73      74
74       1      74      75
75       1      75      76
76       1      76      77
77       1      77      78
78       1      78      79
79       1      79      80
80       1      80      81
81       1      81      82
82       1      82      83
83       1      83      84
84       1      84      85
85       1      85      86
86       1      86      87
87       1      87      88
88       1      88      89
89       1      89      90
90       1      90      91
91       1      91      92
92       1      92      93
93       1      93      94
94       1      94      95
95       1      95      96
96       1      96      97
97       1      97      98
98       1      98      99
99       1      99     100
100       1     100     101
101       1     101     102
102       1     102     103
103       1     103     104
104       1     104     105
105       1     105     106
106       1     106     107
107       1     107     108
108       1     108     109
109       1     109     110
110       1     110     111
111       1     111     112
112       1     112     113
113       1     113     114
114       1     114     115
115       1     115     116
116       1     116     117
117       1     117     118
118       1     118     119
119       1     119     120
120       1     120     121
121       1     121     122
122       1     122     123
123       1     123     124
124       1     124     125
125       1     125       1

Angles

1       1       1       2       3
2       1       2       3       4
3       1       3       4       5
4       1       4       5       6
5       1       5       6       7
6       1       6       7       8
7       1       7       8       9
8       1       8       9      10
9       1       9      10      11
10       1      10      11      12
11       1      11      12      13
12       1      12      13      14
13       1      13      14      15
14       1      14      15      16
15       1      15      16      17
16       1      16      17      18
17       1      17      18      19
18       1      18      19      20
19       1      19      20      21
20       1      20      21      22
21       1      21      22      23
22       1      22      23      24
23       1      23      24      25
24       1      24      25      26
25       1      25      26      27
26       1      26      27      28
27       1      27      28      29
28       1      28      29      30
29       1      29      30      31
30       1      30      31      32
31       1      31      32      33
32       1      32      33      34
33       1      33      34      35
34       1      34      35      36
35       1      35      36      37
36       1      36      37      38
37       1      37      38      39
38       1      38      39      40
39       1      39      40      41
40       1      40      41      42
41       1      41      42      43
42       1      42      43      44
43       1      43      44      45
44       1      44      45      46
45       1      45      46      47
46       1      46      47      48
47       1      47      48      49
48       1      48      49      50
49       1      49      50      51
50       1      50      51      52
51       1      51      52      53
52       1      52      53      54
53       1      53      54      55
54       1      54      55      56
55       1      55      56      57
56       1      56      57      58
57       1      57      58      59
58       1      58      59      60
59       1      59      60      61
60       1      60      61      62
61       1      61      62      63
62       1      62      63      64
63       1      63      64      65
64       1      64      65      66
65       1      65      66      67
66       1      66      67      68
67       1      67      68      69
68       1      68      69      70
69       1      69      70      71
70       1      70      71      72
71       1      71      72      73
72       1      72      73      74
73       1      73      74      75
74       1      74      75      76
75       1      75      76      77
76       1      76      77      78
77       1      77      78      79
78       1      78      79      80
79       1      79      80      81
80       1      80      81      82
81       1      81      82      83
82       1      82      83      84
83       1      83      84      85
84       1      84      85      86
85       1      85      86      87
86       1      86      87      88
87       1      87      88      89
88       1      88      89      90
89       1      89      90      91
90       1      90      91      92
91       1      91      92      93
92       1      92      93      94
93       1      93      94      95
94       1      94      95      96
95       1      95      96      97
96       1      96      97      98
97       1      97      98      99
98       1      98      99     100
99       1      99     100     101
100       1     100     101     102
101       1     101     102     103
102       1     102     103     104
103       1     103     104     105
104       1     104     105     106
105       1     105     106     107
106       1     106     107     108
107       1     107     108     109
108       1     108     109     110
109       1     109     110     111
110       1     110     111     112
111       1     111     112     113
112       1     112     113     114
113       1     113     114     115
114       1     114     115     116
115       1     115     116     117
116       1     116     117     118
117       1     117     118     119
118       1     118     119     120
119       1     119     120     121
120       1     120     121     122
121       1     121     122     123
122       1     122     123     124
123       1     123     124     125
124       1     124     125       1
125       1     125       1       2
