LAMMPS data file via write_data, version 12 Dec 2018, timestep = 20000

200 atoms
1 atom types
200 bonds
1 bond types
200 angles
1 angle types

-3.5000000000000000e+01 3.5000000000000000e+01 xlo xhi
-3.5000000000000000e+01 3.5000000000000000e+01 ylo yhi
-3.5000000000000000e+01 3.5000000000000000e+01 zlo zhi

Masses

1 1

Atoms # angle

116 1 1 -6.2772247246757662e-01 -3.7022653105361125e-01 -3.0183244648245808e+00 0 0 0
25 1 1 -1.4650513259415709e-01 -7.2438304593169345e-01 -8.0604295915386146e+00 0 0 0
69 1 1 -6.0675631551304079e+00 -7.1822620127156500e-01 -5.2217211989810774e+00 0 0 0
21 1 1 -7.0525864413453165e-01 -2.8609201520121736e+00 -8.5317931809319312e+00 0 0 0
67 1 1 -5.0675571740595462e+00 -1.8375480151196364e+00 -4.8575902273327651e+00 0 0 0
74 1 1 -7.8936546739008913e+00 -7.1951910341439085e-01 -4.4752063200819325e+00 0 0 0
73 1 1 -8.7805039415702542e+00 -5.1901078692432989e-01 -4.7806140497393175e+00 0 0 0
16 1 1 -2.8485376000034477e+00 -3.7983997250006549e+00 -6.7578106792262247e+00 0 0 0
15 1 1 -2.4698998984311946e+00 -3.9548125610773912e+00 -5.8989393176790905e+00 0 0 0
18 1 1 -1.9165003870461181e+00 -4.4176082002964119e+00 -7.9760921069532014e+00 0 0 0
17 1 1 -2.0402234716167640e+00 -4.3009349570235207e+00 -6.9563400449406432e+00 0 0 0
65 1 1 -4.1156759309334445e+00 -1.0023293986863517e+00 -5.0038034557701385e+00 0 0 0
78 1 1 -7.8575860504073116e+00 -2.9750735246424100e+00 -2.5998844588781855e+00 0 0 0
13 1 1 -3.2845652238337242e+00 -4.5874286953641734e+00 -4.8071042121351502e+00 0 0 0
14 1 1 -2.9348525511567454e+00 -3.7173467095943789e+00 -5.0701986180540821e+00 0 0 0
77 1 1 -8.5683783431218785e+00 -2.9627952914921551e+00 -3.2219658460290947e+00 0 0 0
68 1 1 -5.9395679660438256e+00 -1.6298109917167021e+00 -5.1602991543804881e+00 0 0 0
20 1 1 -1.1472563998588758e+00 -3.7068956487709932e+00 -8.3550356545964011e+00 0 0 0
199 1 1 -2.7815529511431420e+00 -4.4286840533321720e-01 -3.1883393866280572e+00 0 0 0
110 1 1 -1.6784577429266336e+00 -1.9601698835215884e+00 -2.4793827858213235e-01 0 0 0
60 1 1 -2.3668815927242122e+00 -6.5695640159812752e-01 -5.5361439243588659e+00 0 0 0
26 1 1 -1.6758290279535951e-01 -6.5136202033913149e-01 -7.1299060268241048e+00 0 0 0
75 1 1 -8.0371796337241381e+00 -1.6323316113617832e+00 -4.3406638149287282e+00 0 0 0
12 1 1 -2.4160192453704488e+00 -4.6688799559160721e+00 -4.4126861895222449e+00 0 0 0
79 1 1 -7.2645226472053395e+00 -3.6825059656807415e+00 -2.8827983163916291e+00 0 0 0
76 1 1 -8.5176600993124758e+00 -2.4026498407557284e+00 -4.0813753553975252e+00 0 0 0
64 1 1 -3.7043198376251567e+00 -1.7220904982656832e-01 -5.4297112615566538e+00 0 0 0
66 1 1 -5.0643845698901675e+00 -8.5741515456197481e-01 -4.6986562678614119e+00 0 0 0
80 1 1 -6.3512919227672207e+00 -3.4320289325315172e+00 -2.5566689666606646e+00 0 0 0
57 1 1 -2.2564319225029958e+00 -2.2251270469014099e+00 -4.0618421275601078e+00 0 0 0
56 1 1 -1.3337426631627889e+00 -2.3983495889040576e+00 -4.2783048457356445e+00 0 0 0
23 1 1 -4.9396972879152790e-01 -1.5899024933027159e+00 -7.5633986049593327e+00 0 0 0
58 1 1 -2.1599231319995105e+00 -1.3542415707819946e+00 -4.4506427486682147e+00 0 0 0
59 1 1 -1.5837248703103204e+00 -7.2789940763733740e-01 -4.9098272272659482e+00 0 0 0
22 1 1 -2.5964542732782336e-01 -2.0503630325870894e+00 -8.3739194749828112e+00 0 0 0
11 1 1 -1.8217180753754834e+00 -4.9178662890431868e+00 -3.6804080259679872e+00 0 0 0
7 1 1 -4.2583092280340553e+00 -3.7891478249226545e+00 -1.4980516151240686e+00 0 0 0
81 1 1 -7.0484215196000619e+00 -3.1986584093508492e+00 -1.9640460147210312e+00 0 0 0
82 1 1 -7.0332701185818571e+00 -3.0898829573808433e+00 -9.8575834158980746e-01 0 0 0
3 1 1 -3.6990659486240944e+00 -3.1298479685681353e+00 -3.0532883919429716e+00 0 0 0
9 1 1 -2.7086652946068934e+00 -4.0289341003084553e+00 -2.4532497947623879e+00 0 0 0
8 1 1 -3.5157514987343679e+00 -3.6643156273565114e+00 -2.0353003901347826e+00 0 0 0
10 1 1 -2.5892274374673319e+00 -4.7197271353110422e+00 -3.1163027481753871e+00 0 0 0
83 1 1 -7.4787147241368075e+00 -3.6398366013155936e+00 -2.1715187975724604e-01 0 0 0
114 1 1 -7.2045267540211699e-01 -5.0127285895473994e-01 -1.3762514052550827e+00 0 0 0
6 1 1 -4.2480681791319324e+00 -3.1261711826275560e+00 -7.7627390210646485e-01 0 0 0
5 1 1 -4.3072242529607507e+00 -2.7556279403247901e+00 -1.7085141584379118e+00 0 0 0
4 1 1 -4.0243509666857804e+00 -2.2659893121760963e+00 -2.5113616691672900e+00 0 0 0
1 1 1 -3.2453469576078295e+00 -1.8218176242321789e+00 -3.2525222768284543e+00 0 0 0
2 1 1 -3.8967963222364448e+00 -2.4351486587063991e+00 -3.6929671583419164e+00 0 0 0
112 1 1 -1.7598998022098915e+00 -3.7811595902902556e-01 -8.6611060370739823e-01 0 0 0
19 1 1 -2.0044737959676717e+00 -3.4983919898166431e+00 -8.0790133120191445e+00 0 0 0
55 1 1 -7.4537823319023910e-01 -2.7884664718752146e+00 -3.5959559921576996e+00 0 0 0
200 1 1 -3.5797443923522589e+00 -9.2660386608370771e-01 -3.1979613798627056e+00 0 0 0
111 1 1 -1.6422861033102261e+00 -1.3158055696583606e+00 -1.0332779224094630e+00 0 0 0
113 1 1 -9.9231148273368008e-01 -1.4322327188994211e-01 -4.2867153208681114e-01 0 0 0
115 1 1 -1.1134131864657901e+00 -5.0987018838372111e-01 -2.2083559182726242e+00 0 0 0
70 1 1 -6.7392281995673251e+00 -1.3574445689869832e-01 -4.7709048849896201e+00 0 0 0
87 1 1 -7.9032973895572489e+00 -2.6160297232515926e+00 2.6466761029281498e+00 0 0 0
89 1 1 -6.1993011415644492e+00 -3.0463605081745624e+00 2.8510006444800173e+00 0 0 0
107 1 1 -1.5186764222409050e+00 -9.4070654072421500e-01 1.4366106540448673e+00 0 0 0
102 1 1 -4.4278831348273355e+00 -2.9857979772687870e-01 2.5079735705353552e+00 0 0 0
97 1 1 -5.9570542399582722e+00 -1.9984102295209319e-01 5.1743550216608529e+00 0 0 0
105 1 1 -2.9463484668209303e+00 -3.2692153313226341e-01 2.2251238757006813e+00 0 0 0
90 1 1 -6.8815649767014540e+00 -3.4777585579189951e+00 3.4946748367160039e+00 0 0 0
91 1 1 -7.5270852270930755e+00 -4.1800767273460879e+00 3.4336769137273331e+00 0 0 0
96 1 1 -6.5583616236236519e+00 -8.3266101522310387e-01 4.8216578241486143e+00 0 0 0
95 1 1 -7.4766994152843393e+00 -1.1858519850298086e+00 4.8154964200648669e+00 0 0 0
86 1 1 -8.2434925657665392e+00 -3.1080927305377517e+00 1.8364926830806398e+00 0 0 0
85 1 1 -7.8402663944438791e+00 -3.4181517888914286e+00 9.6638659775494418e-01 0 0 0
109 1 1 -1.9165645148656079e+00 -1.2754365048073906e+00 3.0160012652395002e-01 0 0 0
108 1 1 -1.6175912298261330e+00 -4.4739613320031152e-01 6.4286245232053885e-01 0 0 0
92 1 1 -8.0160759832273243e+00 -3.5786353774230397e+00 4.0291686759128735e+00 0 0 0
93 1 1 -8.2781900205176839e+00 -2.8027500672739016e+00 4.5717975168542671e+00 0 0 0
94 1 1 -8.0749015769809755e+00 -1.9210686034024744e+00 4.8263019108853387e+00 0 0 0
106 1 1 -2.2041413005904040e+00 -8.9045350518879340e-01 2.0933553490285215e+00 0 0 0
88 1 1 -7.0860088561462238e+00 -3.0821776674885166e+00 2.5040766234322152e+00 0 0 0
103 1 1 -3.8686242097541430e+00 -1.1254455812131654e+00 2.5038822070253128e+00 0 0 0
104 1 1 -3.6909141943762340e+00 -6.0933423635480932e-01 1.6701663754191802e+00 0 0 0
84 1 1 -7.3291910800463693e+00 -4.1110206455120490e+00 5.8706706816960263e-01 0 0 0
63 1 1 -4.3532560054713292e+00 4.7785907345187434e-01 -5.2191785368708308e+00 0 0 0
30 1 1 -3.4990654213698025e-01 1.4830445451730592e+00 -6.5686350326048499e+00 0 0 0
62 1 1 -3.4523169409762651e+00 8.4943997346906963e-01 -5.3620137199094051e+00 0 0 0
121 1 1 -8.0437412915561113e-01 3.3045554144576790e+00 -3.2979829830248200e+00 0 0 0
61 1 1 -2.6743765754097302e+00 2.6633938625588449e-01 -5.1677638982135274e+00 0 0 0
117 1 1 -1.2805370435847150e+00 1.9936015288255923e-01 -3.3915258042007208e+00 0 0 0
195 1 1 -4.2252856309102178e+00 1.6524633565225482e+00 -1.2288243615401691e+00 0 0 0
122 1 1 -7.1883755059855406e-02 3.8884811198761615e+00 -3.5300276836297515e+00 0 0 0
119 1 1 -1.1737171557470554e+00 2.1211575070599951e+00 -3.2576477714124370e+00 0 0 0
118 1 1 -1.2705958156527761e+00 1.1526259231494405e+00 -3.2115147767788255e+00 0 0 0
71 1 1 -7.3473164544681815e+00 2.3935803832062169e-01 -5.4576970952738071e+00 0 0 0
192 1 1 -5.6858185011875202e+00 2.9334235390184635e+00 -2.5673995937457361e-01 0 0 0
27 1 1 -3.8085266474779245e-01 2.9042938722326156e-01 -7.2207316348172776e+00 0 0 0
197 1 1 -2.9728426939278392e+00 8.8907766918182662e-01 -1.8281450342542174e+00 0 0 0
196 1 1 -3.2642786142172833e+00 1.7795625277567604e+00 -1.6130446120654418e+00 0 0 0
120 1 1 -1.7337100741796021e+00 2.8536089511660951e+00 -3.3097421668232339e+00 0 0 0
198 1 1 -2.6837895674792440e+00 2.1202652795464083e-01 -2.4637250373965411e+00 0 0 0
123 1 1 -3.3717611666037164e-02 4.8018139915218567e+00 -3.2194658947412331e+00 0 0 0
193 1 1 -5.0123903417787004e+00 2.3453424339754161e+00 -5.5212637319759739e-01 0 0 0
194 1 1 -5.1982859130869361e+00 1.6456764483828301e+00 -1.1434730620567690e+00 0 0 0
175 1 1 -3.0505605541949760e-01 3.6553791395458632e+00 -1.4855492395837955e+00 0 0 0
72 1 1 -8.2308184039602708e+00 2.8622038987460019e-01 -4.9871284472560458e+00 0 0 0
32 1 1 -2.5557663711447250e-02 1.8187373832915099e+00 -5.2340889351638129e+00 0 0 0
181 1 1 -2.1390131612837204e+00 1.5260281376007114e+00 2.2482208745933935e-01 0 0 0
186 1 1 -5.0251245737063641e+00 2.8863516624635102e+00 9.3366416841407318e-01 0 0 0
187 1 1 -5.4344241107783873e+00 2.8323081616869823e+00 1.8910436914129489e+00 0 0 0
180 1 1 -1.6103592126330351e+00 2.1535881809489661e+00 7.4115660659264537e-01 0 0 0
189 1 1 -5.7246190723643720e+00 3.7969532049221661e+00 1.2963372429200553e+00 0 0 0
183 1 1 -3.5211756003996140e+00 2.3120251435892754e+00 1.0669368915741868e+00 0 0 0
184 1 1 -4.1960056961463899e+00 1.9695198586337337e+00 1.7146651318277539e+00 0 0 0
185 1 1 -4.5219563406844738e+00 2.0824093342726169e+00 8.2795005390748022e-01 0 0 0
182 1 1 -2.9031313237432395e+00 1.5134767248755159e+00 8.1722403415226774e-01 0 0 0
188 1 1 -6.2402682390458315e+00 2.9189385893186217e+00 1.3531073557155668e+00 0 0 0
101 1 1 -4.6544781550303389e+00 6.2610675862375231e-02 3.4840456912676689e+00 0 0 0
178 1 1 -5.0366308267643745e-01 3.2921207441692841e+00 6.9535768277974797e-01 0 0 0
190 1 1 -5.2112419257854627e+00 4.3859974702677862e+00 8.8837738114424480e-01 0 0 0
179 1 1 -6.1688732431266846e-01 2.3073654097755059e+00 7.5960885972972059e-01 0 0 0
100 1 1 -4.9817675811120381e+00 9.6459246502122964e-01 3.5632919706463073e+00 0 0 0
98 1 1 -5.9627923973746100e+00 6.6225898457015153e-01 4.6775148575879344e+00 0 0 0
191 1 1 -5.5921205981863809e+00 3.7598645276036082e+00 2.8784717623221356e-01 0 0 0
99 1 1 -5.2820975549454730e+00 1.2687774495446620e+00 4.4479391612666204e+00 0 0 0
44 1 1 2.8922048559851214e+00 -6.4539630433908435e-01 -1.2065232083696440e+00 0 0 0
146 1 1 1.5610772288988346e+00 -8.9598733844568035e-01 -3.4576686508757830e+00 0 0 0
53 1 1 8.8241311284137425e-01 -3.7232181916520677e+00 -3.2910678602760068e+00 0 0 0
141 1 1 2.4135515204760578e+00 -3.0655233591306419e+00 -9.9667951530922549e-01 0 0 0
134 1 1 2.8295849923498380e+00 -3.0733012265490561e-01 -3.1601491301162885e+00 0 0 0
152 1 1 3.0617194424599852e+00 -8.3458363190796758e-01 -7.1133029040206592e+00 0 0 0
155 1 1 4.5310050203335592e+00 -1.4119265762915951e+00 -6.9634368868821674e+00 0 0 0
135 1 1 3.5811467216535466e+00 -1.3658185866488581e-01 -2.5684349388201428e+00 0 0 0
149 1 1 2.5935989753794919e+00 -9.8720864976154198e-03 -5.6327046048289819e+00 0 0 0
147 1 1 1.7607831454141503e+00 -9.0976451276992321e-01 -4.4438592583445411e+00 0 0 0
54 1 1 2.1896155221700225e-01 -3.0412386262838416e+00 -3.6450926234813128e+00 0 0 0
139 1 1 2.8431132653987645e+00 -1.8514051902236441e+00 -1.0079790076839490e+00 0 0 0
52 1 1 1.1157970646760280e+00 -4.5887282387916599e+00 -3.7063947561445736e+00 0 0 0
51 1 1 1.5368689946562859e+00 -3.8652419720186231e+00 -4.1750764325435652e+00 0 0 0
49 1 1 2.0946401593820259e+00 -2.9316377591993334e+00 -3.5315698006860057e+00 0 0 0
145 1 1 1.2542369862705547e+00 -1.3236641999021681e+00 -2.5596077258461185e+00 0 0 0
24 1 1 4.4734444703378234e-01 -1.3883334221594457e+00 -7.6382095957458089e+00 0 0 0
50 1 1 2.4587259759447724e+00 -3.7861595331658124e+00 -3.8412389937499278e+00 0 0 0
140 1 1 3.1645361033850619e+00 -2.6807057314096610e+00 -1.4397861618322587e+00 0 0 0
48 1 1 2.6725176876970083e+00 -2.3232053041789773e+00 -3.1073497987881300e+00 0 0 0
144 1 1 1.8039666073555773e+00 -2.1457585055817554e+00 -2.4291649133799038e+00 0 0 0
47 1 1 2.9589106102195895e+00 -2.0251041624766151e+00 -2.1701327990955916e+00 0 0 0
46 1 1 2.8548711226563852e+00 -1.0799833090630104e+00 -2.3801006931284685e+00 0 0 0
136 1 1 3.9516488467267989e+00 -1.0825162947035651e+00 -2.5613703986803977e+00 0 0 0
143 1 1 1.5934950867707842e+00 -2.8227670207520905e+00 -1.7915355989579964e+00 0 0 0
138 1 1 3.7282788351556411e+00 -1.7214272513473254e+00 -1.3141513575822876e+00 0 0 0
137 1 1 4.4138440091034576e+00 -1.7451745759118760e+00 -2.0059403652108738e+00 0 0 0
142 1 1 1.6060175244803696e+00 -2.6631353971240759e+00 -8.5097023944534500e-01 0 0 0
151 1 1 2.0998884105253883e+00 -5.2491107777909807e-01 -7.1666054885724968e+00 0 0 0
157 1 1 5.7449781145476617e+00 -1.6815779244981258e-01 -6.7647976926777442e+00 0 0 0
45 1 1 2.1624670189075546e+00 -8.9511306188350326e-01 -1.7724134145033841e+00 0 0 0
154 1 1 4.3223282677048358e+00 -8.9412296268378455e-01 -7.7282177397481790e+00 0 0 0
148 1 1 2.5097354119774207e+00 -5.0051410051407141e-01 -4.7725562375536210e+00 0 0 0
156 1 1 5.4912463221319028e+00 -1.0824989560006095e+00 -6.9859386347433077e+00 0 0 0
153 1 1 3.4148326903806763e+00 -9.5448871542787150e-01 -8.0010050771580055e+00 0 0 0
168 1 1 2.8625965879481794e+00 5.2221536906995949e+00 -2.8669639116498287e+00 0 0 0
28 1 1 3.8545606824719242e-01 4.3918046600567706e-01 -7.7893226868332253e+00 0 0 0
29 1 1 3.8049262172639975e-01 1.0222553622749848e+00 -7.0140053419354089e+00 0 0 0
35 1 1 1.1517591260302591e+00 1.5159959530080958e+00 -3.2353920854514837e+00 0 0 0
173 1 1 1.0691156705078209e+00 3.2381761277441083e+00 -2.6112461694261695e+00 0 0 0
172 1 1 9.0074580409068961e-01 3.3568495897901713e+00 -3.5513453184005779e+00 0 0 0
158 1 1 5.5928741401316717e+00 9.1223389284323098e-01 -6.8580296633068016e+00 0 0 0
171 1 1 1.2824800012432833e+00 3.7075950749364943e+00 -4.4069791751691971e+00 0 0 0
165 1 1 4.7636654756611252e+00 4.3021627038566139e+00 -3.1279047603817580e+00 0 0 0
124 1 1 7.0076410800368505e-01 4.6165409193980134e+00 -2.5464193948328826e+00 0 0 0
159 1 1 4.9180500373555702e+00 1.4934419350124013e+00 -6.4426912607351206e+00 0 0 0
130 1 1 1.8379629744541801e+00 2.1661061619201445e+00 -1.3797670841811407e+00 0 0 0
164 1 1 4.1882038745395604e+00 3.9554822136705883e+00 -3.7789110321139754e+00 0 0 0
167 1 1 3.8364293354400587e+00 5.2885979466016240e+00 -2.7608540899735923e+00 0 0 0
126 1 1 2.1553687970770898e+00 3.9426996003786123e+00 -1.4435503514746948e+00 0 0 0
160 1 1 5.2659761860011720e+00 1.0793130757908991e+00 -5.6968798950373802e+00 0 0 0
170 1 1 1.8901118041017186e+00 4.1511352539316952e+00 -3.7690846063351344e+00 0 0 0
174 1 1 1.4459287693506784e-01 3.3525244966708074e+00 -2.2597358004938735e+00 0 0 0
42 1 1 3.4458021176827653e+00 9.8456794901457989e-01 -2.0414525086257078e+00 0 0 0
162 1 1 4.7270887984117627e+00 2.2747236784065263e+00 -4.3844165447465979e+00 0 0 0
161 1 1 5.2172590301359172e+00 1.5864639756373540e+00 -4.8613281359659997e+00 0 0 0
39 1 1 3.3578401577990644e+00 1.5749531635404075e+00 -3.8651052998840743e+00 0 0 0
36 1 1 1.5520582468095947e+00 2.3707113386819882e+00 -2.8889535420861714e+00 0 0 0
169 1 1 2.7108213688127316e+00 4.6560606827483220e+00 -3.6038077113612741e+00 0 0 0
125 1 1 1.3513732937191689e+00 4.1926408058215872e+00 -1.9583436556216849e+00 0 0 0
132 1 1 1.7851933333072787e+00 8.1645249630289796e-01 -2.4636325121800842e+00 0 0 0
128 1 1 1.4732299134589122e+00 2.9994315586778817e+00 -7.1215564328940284e-01 0 0 0
131 1 1 1.7861419205800437e+00 1.2490611779860463e+00 -1.6233352555147182e+00 0 0 0
129 1 1 9.3399787517828492e-01 2.4394710309674856e+00 -1.3199706071973103e+00 0 0 0
41 1 1 3.3664690951677767e+00 1.8939279900159800e+00 -2.1259055854202229e+00 0 0 0
38 1 1 2.4856318597052733e+00 1.9966903145163089e+00 -4.1916708119200834e+00 0 0 0
40 1 1 3.8384327804209994e+00 1.6250915757667037e+00 -3.0200838328813759e+00 0 0 0
163 1 1 4.3331425921596809e+00 3.1660213129292396e+00 -4.3026973446313717e+00 0 0 0
37 1 1 2.3136808497384633e+00 2.6184286630092384e+00 -3.4301902296595523e+00 0 0 0
166 1 1 4.6645194539359833e+00 5.2568478779524774e+00 -3.2924684544505065e+00 0 0 0
127 1 1 2.2602419306792534e+00 3.5523872222058270e+00 -5.6740111327547138e-01 0 0 0
176 1 1 3.1933936561191695e-01 3.2242802595624784e+00 -9.2909067975609183e-01 0 0 0
34 1 1 7.2573658066855840e-01 8.5577015439241888e-01 -3.7882622993245283e+00 0 0 0
133 1 1 2.1065196710765925e+00 3.4302094138197148e-01 -3.2944595966501522e+00 0 0 0
31 1 1 3.9728611371837591e-01 1.5506447672343646e+00 -6.0168131165454124e+00 0 0 0
33 1 1 1.8970613008663317e-01 1.1783684610795533e+00 -4.5484728001469223e+00 0 0 0
43 1 1 3.0008142212901059e+00 2.7346974050424233e-01 -1.4811019508774079e+00 0 0 0
150 1 1 2.4293639983191548e+00 1.2926269020206405e-01 -6.5902799411932298e+00 0 0 0
177 1 1 2.4818138841596907e-01 3.1703658148788705e+00 6.5910458220074589e-02 0 0 0

Velocities

116 -8.6574489427348755e-01 1.0721892178218915e+00 1.0077634344832660e+00
25 1.1178679860876390e+00 -5.1427239695149152e-01 3.1786497788084295e-01
69 5.2305845759218439e-01 8.5378545977328091e-01 -2.2881312574684526e-01
21 -1.3540176074727539e+00 -6.7730201066179796e-01 -7.1519093846299420e-01
67 8.3905316596299451e-01 6.2701087191016636e-02 -6.4577170737160261e-01
74 2.7609579059232598e+00 8.0713785917113545e-01 1.1289280146402831e+00
73 -1.6799150480915004e-01 -5.6710010950199630e-01 1.0163739506261988e+00
16 -1.5933840326458981e+00 -9.8535061655467282e-01 -4.4648583577132545e-01
15 -5.3646416153940146e-01 6.5932213758308178e-01 2.1091799650923151e+00
18 -2.6511258611639971e-01 -1.0242356906700381e+00 -1.0070971637924520e+00
17 -8.3516601343419528e-01 -1.7498861138807731e-01 1.6362425364722029e+00
65 -2.0507716459228548e-01 6.5458263675396089e-01 -1.6887130960207608e+00
78 -1.6436362279993810e+00 -7.0837265831977603e-01 4.0904880265505655e-01
13 6.2056410507761994e-01 -1.0302309195301426e-01 3.1675124466391258e-03
14 -6.2233993500246121e-01 -1.7702546733539151e+00 -1.5476647818143494e+00
77 2.7499323007309184e-01 -1.4955789177768383e-01 1.6468766635994092e+00
68 1.2299663491570754e+00 1.2629358033065183e+00 -2.6653673418547202e-01
20 -1.8157164456637360e+00 -1.2295427911296952e+00 -1.8742710387770132e+00
199 -1.1628585450174282e+00 2.3395267261335928e-01 -1.2800660509514001e+00
110 5.4255785068357300e-02 -7.0781318426943418e-01 1.4143213828755081e+00
60 -3.0349217162393544e-01 1.6605077185140451e+00 1.5504741609703614e+00
26 8.5200697949987148e-01 9.0241730352801530e-02 7.0941245389521423e-01
75 -5.8535631809257005e-01 2.6374571729154450e-01 -1.4012262565713289e+00
12 4.7906931176145628e-01 -1.5725061148258992e-01 8.0236059662860271e-01
79 -8.8164610302755031e-01 1.5039032035575600e-01 5.6734452969783300e-01
76 7.3082604960176900e-01 8.4932059001072213e-01 2.4521254633916651e+00
64 1.6643622778320948e+00 7.1317250094230222e-01 -8.3873739055920174e-02
66 -1.9997093821232123e-01 5.3543742876480638e-01 3.0875421547465054e+00
80 -1.1992822620511001e+00 4.9723273065623275e-01 -9.9358375860828962e-01
57 -8.0330098158079477e-01 6.3761377207538317e-01 -5.5277302219904255e-02
56 5.7046802697597565e-01 -1.2664501347130077e+00 -5.6008038789265924e-01
23 -9.5681188023450070e-01 1.5759244843004930e-01 -6.9715076748619087e-01
58 1.0685178299214277e+00 5.1385246184476918e-01 -2.1327705864470947e-01
59 9.7610835487608705e-01 -8.6067531294895938e-01 -4.0119323947180247e-01
22 8.1166007700785792e-01 -4.9885567114858154e-01 1.4146216849261097e+00
11 -1.0321580990783228e+00 1.3288076836048408e+00 -4.7479964116325579e-01
7 2.5256203965637218e+00 -4.9768584323728893e-01 1.7224509012333150e-01
81 -5.6088297485331073e-01 7.1686019992015160e-01 -2.5540432929120188e-01
82 -5.9811949139045884e-01 -4.2131642406350267e-01 3.8606889559511644e-02
3 6.8584095106537601e-01 -1.7320699196457859e-01 6.3692621639413782e-01
9 8.9684854076063658e-01 -1.1784843121839479e+00 -1.0735956159399080e+00
8 8.5520376547640664e-01 3.2185278830081659e-01 -3.7354624790834295e-01
10 -1.0639425401760108e+00 1.9326251954292464e+00 1.3266806598457117e+00
83 4.1378547485901918e-01 2.0045372715750522e+00 1.8968558999962422e+00
114 -1.0693142536666303e-01 -5.1092033912626356e-01 4.7034566953417817e-01
6 9.0869490571935185e-01 -1.3292888999592858e+00 2.7018104457585895e-01
5 -9.1853491520638586e-01 9.3240449920852231e-01 -7.3658347638292421e-01
4 -2.1498016318791696e-01 4.4243249127001505e-02 -2.1738136073485067e-03
1 -1.2549393806160054e-02 1.2742137686752810e+00 2.1322139777170368e+00
2 -1.5393949507963021e+00 -5.9353407069253822e-02 1.7550375300419360e-01
112 -3.4283701169923214e-01 1.5849388713181252e+00 -1.1433946050366792e+00
19 1.3009943481078257e-02 1.4744574947943859e-01 -3.9607908069487052e-01
55 -8.6443542105232796e-01 -7.2660741798544137e-01 1.2289555735472073e+00
200 1.3772612414138016e-01 -5.8640224066972246e-01 -1.3937816599458592e+00
111 -7.3256711187612633e-01 -9.1154398015846572e-01 -2.6179421287614035e-01
113 -2.0300200565590004e-01 4.9531873134061455e-01 4.1173546220828766e-01
115 1.0553127981136436e+00 -1.6027036545581199e+00 -8.6165429562460449e-01
70 6.4415184784988345e-03 -1.1966195105702879e+00 -9.7294150382853606e-02
87 1.3187320923279973e+00 -2.0545495161062051e+00 -1.1702631618298236e+00
89 4.2476241203385245e-01 -9.4972567195227398e-01 -2.0576458293226249e-01
107 3.7276211397264986e-01 3.2828550697295411e-01 1.5052530855413268e-01
102 9.5329310734392503e-01 7.3849976288072705e-01 -1.3849913363588002e+00
97 6.5194943876558442e-01 1.7145670278070024e+00 5.0665112333686618e-02
105 8.7875316186604213e-01 -9.5743733975150103e-01 4.0179579039572055e-01
90 -1.8791178345876021e+00 -1.1427841523413103e+00 -5.8933154200941906e-01
91 -5.8145610249015478e-01 5.4210345094172885e-01 9.0255741511313381e-01
96 7.1338134534966602e-01 -1.7508133119736593e+00 -4.4389209254343853e-01
95 -1.8352105243233381e+00 -4.7008658134606862e-03 -4.4095893952667325e-01
86 -1.9069412112361110e+00 5.5285580784269858e-02 -1.6518909604441356e+00
85 -3.9495986172110359e-01 -1.4787929178399315e+00 -1.2253061635938407e+00
109 -4.8904392084306419e-01 1.6468979572018849e+00 1.9410059567252613e-01
108 -3.2798075025421108e-01 -4.1224867003844512e-01 1.2339065680820169e+00
92 2.5156791581759397e-01 -2.1242146144502566e-01 1.2142199285567006e+00
93 1.2388605340552762e-01 -3.2035618308439529e-01 1.6794390313226754e-01
94 -3.4748560836445630e-01 7.9674378944168978e-01 1.0739465646151455e-02
106 -7.9623693495184844e-01 -1.9477004060446144e+00 -4.0474530854437457e-01
88 1.1878597900565686e+00 1.4308224571669097e+00 2.9688799093075718e-01
103 1.2255184516845352e+00 3.9809608082504755e-01 -8.2288222293159397e-01
104 -1.0061777419982051e-01 -1.6468351500274170e+00 1.7889510526995887e+00
84 -1.4511918089657133e-01 1.3514679167387385e+00 1.2771262251672280e+00
63 -9.5435766121088450e-01 3.6130128275285367e-01 -5.7598477810392512e-01
30 1.5474083424174450e+00 2.0657215307637942e+00 -3.6545173996790237e-01
62 2.6521641236926091e-01 1.1136289439558644e+00 4.5979627211381058e-01
121 1.8562735475308514e+00 -3.6889690497596916e-01 -1.4887863178520457e+00
61 7.7567580706010733e-02 -3.3724784871858543e-01 -4.5002675732446523e-01
117 1.9093387279301643e-01 -4.4702010556016331e-02 1.9256064841651233e-01
195 1.4935088624538879e+00 1.1700436487777859e+00 -1.2230161635563015e+00
122 -4.1679226505602235e-01 1.8433474395816002e-01 5.0417370882706525e-01
119 -7.1925947727169182e-01 6.9792399613284894e-01 2.2972127989161355e+00
118 4.3576773550530357e-01 -6.2246437921226916e-02 5.3403948093789642e-02
71 -9.9565196047746873e-01 3.6380119239489089e-01 1.4195802069148939e+00
192 3.3642233043340480e-01 5.1254052420338592e-01 4.2375639590487302e-01
27 8.6502674432686044e-01 -8.2399714491571419e-01 -8.2475714914940967e-01
197 -5.2251692527930726e-01 -8.0591840133557996e-03 9.2703262013786092e-01
196 -4.5917973360331132e-01 -3.4228458223516506e-01 -3.0892922061989325e+00
120 1.2938607289574429e+00 3.5911128491286870e-01 6.2529778638783506e-02
198 7.8423167692329737e-02 -2.6066311471607938e-02 2.1625448969127836e+00
123 1.6251275645238985e+00 5.1806053664217755e-01 -3.9886127596445836e-01
193 -1.1278479323643981e-01 4.0398212420856078e-01 -1.8731325310193760e+00
194 -5.0437377011550488e-01 -5.7795651257281144e-01 1.2158989257385362e+00
175 1.1637180281716013e+00 9.4224442465318492e-01 -1.8728444397338267e-01
72 -1.8380825152039171e-01 4.7066198526805952e-01 -1.1776396070059985e+00
32 1.3278262481718806e+00 -2.5120431377389185e-01 -6.8112988323520929e-01
181 -2.4655832229493729e-01 -5.6258780212390580e-01 6.0044345610220129e-01
186 3.7061246966325018e-01 -4.3072729761865669e-01 2.6048732237449785e+00
187 -1.8444311917129785e-01 1.1568626799150554e+00 8.3783795259548888e-01
180 2.1469462808849409e+00 1.0460522962241849e+00 5.3565260106766965e-01
189 -1.0583098595789673e+00 1.4258680212314916e+00 6.8432258898840947e-01
183 -1.4491753817870272e+00 -8.9678123918747821e-01 -7.1776455999817446e-01
184 1.3907203438053473e+00 1.5197650688007391e+00 -1.6332678296364789e-01
185 -1.6777785898805124e+00 -1.1955528971720781e+00 -4.5596540001173275e-01
182 -1.1246424761406690e+00 -1.8269157205294717e+00 -5.0818517771946736e-01
188 -2.5484774000241267e-02 1.1334148594883913e+00 1.3165983654925648e-01
101 -2.5630074843666528e-01 -8.0988549311623248e-01 -3.4270714616535153e-01
178 2.5228507734241519e+00 -1.3795909397472531e-01 -1.5661252101173861e-01
190 4.5052041953631466e-01 1.1945221838673867e+00 2.5748447073694174e+00
179 -1.3345741601363614e+00 8.1912416029435109e-01 -4.0815630126743585e-01
100 7.7615691293659383e-01 3.6495654709061226e-01 5.5583944047018097e-01
98 4.1934366832572023e-01 4.7105201582329465e-01 -1.0413534497364350e+00
191 1.5410759066959612e+00 -3.2721820041620475e-01 -7.6370824651083147e-01
99 8.6158328767285697e-01 -5.1703686724212949e-01 -3.2223833384249423e-01
44 -2.7025571608035992e-01 -2.3097300008068264e-01 1.3664079695455897e+00
146 -6.1166296514676177e-01 4.0590754005115981e-01 8.8288252204758977e-01
53 -4.4312606377346142e-01 -1.5508755736185498e-01 -9.2917381659330167e-01
141 1.2247350766178557e+00 -6.7536713843545226e-01 -6.3715569497378111e-01
134 -5.7132230839548392e-01 -1.5931781558138003e+00 6.5329577383670845e-02
152 3.6948600465585973e-01 -5.9723127334762105e-01 9.3488563282261428e-01
155 1.5236848347276604e+00 3.7735561495860687e-01 -4.9045363261659441e-01
135 -4.6455701577144976e-01 1.3120171106599268e+00 4.1113236207949078e-01
149 -3.1336364328091970e-01 -6.8659766846670423e-01 2.9706574308769901e-01
147 1.6820495885371722e+00 -5.1663476085188242e-01 3.8844695844572097e-01
54 4.1616784234763249e-01 -5.5578141735702502e-01 -3.6510979559637793e-02
139 -6.0650712350384814e-02 9.0246203399001412e-02 -1.5568394456647654e+00
52 7.6320501787132600e-01 1.1397020216234233e+00 8.4589323517459325e-01
51 1.7136466667605536e-02 7.9604923427478780e-01 1.9101556116182699e+00
49 -1.2694272770005912e+00 8.8615283692061209e-01 4.9157572844524189e-01
145 2.7920765402103270e-01 -1.1863088827814838e+00 3.6633058075592906e-01
24 -9.4568128185789990e-01 -1.5093817540188708e+00 6.8624473969019673e-01
50 -9.7003391220195273e-02 -3.8421996482874743e-01 -5.1800081964710754e-01
140 -9.8882141888634267e-01 -1.1085958424521967e+00 6.9179568270339864e-01
48 -1.1543418700271169e+00 4.4806029224870658e-01 3.2925152270010222e-01
144 9.6866856210849173e-01 -3.8592689644889216e-01 1.3023990588151058e+00
47 1.3313896296048877e+00 5.3478904878065725e-01 2.0758068219609999e-01
46 -3.1049232205048699e-01 4.1291094722060789e-01 1.6442538299410858e+00
136 1.0484447380773330e+00 -4.9062090494359339e-01 -1.5357931391776638e+00
143 -1.1917030937153099e+00 7.9592738554373055e-01 -5.8093684153296388e-01
138 1.8440327180197608e-01 -1.3497832792553024e+00 4.0117511520804894e-01
137 8.0325617946624428e-01 1.6541462509506030e-01 -1.3392715998241689e+00
142 -4.6465210646027616e-01 -1.9821593154041759e+00 1.5437622762944065e+00
151 -1.1893141160961960e+00 -1.5738186409800581e-01 1.5397019786102295e-01
157 1.9854679762205627e+00 -2.4058067278446704e-01 1.5985278884233303e+00
45 -5.6667079847607305e-01 2.9819715806863739e-01 -2.7924224100121203e-01
154 -2.6002224365784699e-01 -9.3319565547662442e-01 3.3393879119007724e-01
148 8.8162248079097039e-01 1.9180516208878471e+00 -6.5950322557925944e-01
156 -7.5722543333429093e-01 -6.0630943869517273e-01 -1.0075138414392601e+00
153 6.0210738670292263e-01 -1.5239514344311713e+00 -1.1542072669309871e+00
168 -1.0402449004105554e+00 -3.1903389229649637e-01 3.4090669181672406e-01
28 1.1288711219788008e+00 -5.0109307049972485e-01 -2.4130539435535533e-01
29 8.1660183341457371e-01 7.4899534592583461e-01 -8.2367846871439235e-02
35 -9.2166240600858318e-01 -3.3142092867374523e-01 1.2948372399859591e+00
173 -9.1119380049834428e-02 3.9335578634125135e-01 -7.1274333513735089e-01
172 1.0975005922953521e-01 -7.6367950333267276e-01 1.1399861792751376e+00
158 -2.9806062217985252e-01 -1.9004346884697129e-01 -3.1834494402533262e-02
171 1.0207704485659744e-01 -5.6694497234067809e-01 5.1895571318068012e-01
165 5.8701500925845296e-01 -1.5847493931728834e-01 1.2692000643608965e+00
124 -5.1808412140595295e-01 7.5136787716827594e-02 1.2769420293662093e+00
159 -8.7652493587380487e-01 -5.8112291697638729e-01 -5.5212233395509513e-01
130 -2.1841180373083424e-01 -8.5016226499249503e-01 -2.0619634669947781e-01
164 1.5375874125061157e+00 -1.5723349406536296e+00 1.7660730483423071e+00
167 9.3112130524482573e-01 2.7102972606592401e-01 6.7705932389997625e-01
126 -2.0597916167971533e-01 1.0615971462721834e+00 -8.5243855757097409e-01
160 -5.7775225879754455e-01 -8.3274021045373992e-01 8.5945210694840113e-01