LAMMPS data file via write_data, version 12 Dec 2018, timestep = 20000

100 atoms
1 atom types
100 bonds
1 bond types
100 angles
1 angle types

-2.5000000000000000e+01 2.5000000000000000e+01 xlo xhi
-2.5000000000000000e+01 2.5000000000000000e+01 ylo yhi
-2.5000000000000000e+01 2.5000000000000000e+01 zlo zhi

Masses

1 1

Atoms # angle

70 1 1 -8.2361091651332941e-01 -3.3033094364532145e+00 3.9591474877053718e+00 0 0 0
68 1 1 -7.1345790554754637e-02 -2.1201988608388240e+00 2.7276868008148800e+00 0 0 0
73 1 1 -9.1446507078810069e-01 -3.9363664030278542e+00 5.3532658627046690e+00 0 0 0
74 1 1 -1.6233928811982641e+00 -4.6739755992092409e+00 5.3592088327689318e+00 0 0 0
69 1 1 -2.5940003610587453e-01 -2.6901129730018658e+00 3.4423810843698570e+00 0 0 0
72 1 1 -4.8068915307201082e-01 -3.0391018616592009e+00 5.2450776340977221e+00 0 0 0
75 1 1 -8.7724475237147870e-01 -4.8642329950380363e+00 5.9819546343275194e+00 0 0 0
71 1 1 -5.0698215583004969e-01 -2.4700972665412593e+00 4.3992152181422544e+00 0 0 0
76 1 1 -5.7680129040044256e-02 -4.4642690171666404e+00 5.8730962813859815e+00 0 0 0
3 1 1 3.5287040372730609e+00 -2.0822907421997772e+00 -8.9504992779241321e-01 0 0 0
4 1 1 3.4329833398978540e+00 -2.6541594525738708e+00 -7.2452494979821966e-02 0 0 0
2 1 1 4.1316151704844719e+00 -1.4062250217177432e+00 -1.1919382147892812e+00 0 0 0
100 1 1 5.2828783629013323e+00 -3.8391788295973317e-01 -7.2479667215270205e-01 0 0 0
1 1 1 4.4447824944547927e+00 -7.3854484437634571e-01 -5.3380419563583148e-01 0 0 0
54 1 1 2.2703318682949507e+00 -1.3621401500733261e+00 6.2431844696381527e+00 0 0 0
7 1 1 2.1691484507564023e+00 -2.7549225955055752e+00 1.2756716586632044e+00 0 0 0
50 1 1 2.2596632394496847e+00 -4.4221950714922702e+00 6.9011230277633313e+00 0 0 0
10 1 1 1.1512467749868274e+00 -2.7841621151923528e+00 3.5398620187571233e+00 0 0 0
63 1 1 1.7426215159379121e+00 -1.7165250620168295e+00 1.7306046992929836e+00 0 0 0
18 1 1 4.6470679832991690e+00 -7.6733741657001353e-01 1.5268299789734252e+00 0 0 0
65 1 1 1.0053858646976113e+00 -7.4576758528850229e-01 1.4229225407526904e+00 0 0 0
89 1 1 4.1485405062079099e+00 -8.3180539027127998e-01 3.8217617158378761e+00 0 0 0
61 1 1 3.0361033061360820e+00 -1.8556255267316568e+00 2.2532162764176009e+00 0 0 0
62 1 1 2.5343383392285195e+00 -1.2453574048844569e+00 1.6289737245156717e+00 0 0 0
39 1 1 4.5056209707284349e+00 -1.7719852580576270e+00 4.5797585563169827e+00 0 0 0
36 1 1 3.5028036819074115e+00 -4.5207029562514606e-01 5.4737766605803273e+00 0 0 0
52 1 1 2.8067449066530203e+00 -2.8408345792378955e+00 6.9481406283850582e+00 0 0 0
41 1 1 6.1027370744574032e+00 -2.3437577957221896e+00 4.5611969891803783e+00 0 0 0
59 1 1 3.1803166945876629e+00 -2.1087213296210279e+00 3.3821851676466204e+00 0 0 0
40 1 1 5.3221527396734238e+00 -2.0270937255217927e+00 4.1573706953624754e+00 0 0 0
78 1 1 1.5914379780278762e+00 -4.0714890589446053e+00 5.9815023039801121e+00 0 0 0
60 1 1 3.8151727345439235e+00 -1.5853611466653208e+00 2.8441514353973214e+00 0 0 0
38 1 1 3.6000233585808852e+00 -1.5650150684544124e+00 4.3464179683025881e+00 0 0 0
86 1 1 4.8627561473020551e+00 -5.4473951748548877e-01 5.6967923847182762e+00 0 0 0
43 1 1 5.2330108981523038e+00 -2.8757669480513171e+00 3.5684493279433500e+00 0 0 0
81 1 1 4.0768862264534107e+00 -3.4782316252051002e+00 6.0052115826780144e+00 0 0 0
42 1 1 6.2013520261555621e+00 -2.8936201443959062e+00 3.7737804461166067e+00 0 0 0
82 1 1 3.6715261354440067e+00 -2.6732440672638322e+00 6.3373371401977918e+00 0 0 0
57 1 1 1.8760410247027490e+00 -2.4304921937788366e+00 4.1899662519945631e+00 0 0 0
49 1 1 3.0168378555853699e+00 -4.6556235485738835e+00 6.3532262558656676e+00 0 0 0
58 1 1 2.3769342232023591e+00 -1.6870291727505213e+00 3.6402624940797845e+00 0 0 0
83 1 1 4.2903475761433887e+00 -2.0672799653351692e+00 6.8129572927023778e+00 0 0 0
84 1 1 4.8502672003902747e+00 -2.3467757839686447e+00 6.1087141939859775e+00 0 0 0
11 1 1 1.4684937425821811e+00 -2.0853964005870163e+00 3.0259386576787390e+00 0 0 0
44 1 1 5.1582381142735843e+00 -3.5371828926615079e+00 4.2146819435328302e+00 0 0 0
51 1 1 2.1335260935022737e+00 -3.5229269438824171e+00 7.1439169733788752e+00 0 0 0
55 1 1 2.6455370417839168e+00 -1.9544935800019199e+00 5.6679987282526261e+00 0 0 0
80 1 1 3.2868739078760569e+00 -3.3008302420263225e+00 5.5847097027089498e+00 0 0 0
56 1 1 1.9561497058264452e+00 -1.9658832537535449e+00 4.9873523783761486e+00 0 0 0
46 1 1 3.9654870131456117e+00 -4.6499558068861511e+00 4.6297154593661736e+00 0 0 0
17 1 1 3.8973767103857226e+00 -2.2624827850857190e-01 1.2233086467263994e+00 0 0 0
45 1 1 4.9172685619901282e+00 -4.3660985060009487e+00 4.6376570576566989e+00 0 0 0
8 1 1 2.3369858457454131e+00 -3.2491956152101538e+00 2.0810057750268682e+00 0 0 0
47 1 1 3.6255934498525386e+00 -4.7427690573125840e+00 5.5300723245471000e+00 0 0 0
48 1 1 3.6473718042616396e+00 -5.3750102446226311e+00 6.3009768627310594e+00 0 0 0
64 1 1 1.3207769634175162e+00 -1.5260995435376461e+00 8.9127212319090721e-01 0 0 0
5 1 1 2.5773908115950643e+00 -2.9168322246496663e+00 2.5236138997937790e-01 0 0 0
53 1 1 2.1861978329687850e+00 -2.1313057159994333e+00 6.8727481814022235e+00 0 0 0
85 1 1 5.1113102558127093e+00 -1.4267892780521203e+00 5.8618546214961498e+00 0 0 0
87 1 1 5.4548804106647601e+00 -6.7569247491494089e-01 4.8778682837745384e+00 0 0 0
35 1 1 3.0270427110751128e+00 -6.5848855553179719e-01 6.3446293969122944e+00 0 0 0
9 1 1 1.6829816356191289e+00 -3.0415220051792007e+00 2.7921190588830975e+00 0 0 0
12 1 1 1.4041936943344666e+00 -1.1037531505292311e+00 3.1610039498313394e+00 0 0 0
37 1 1 3.4244946906711955e+00 -6.4082565125463831e-01 4.5287087479548838e+00 0 0 0
79 1 1 2.4304903011361372e+00 -3.4810615301400021e+00 6.0613663149839709e+00 0 0 0
16 1 1 3.5919481875159551e+00 -5.7881828154188264e-01 2.0766837477392857e+00 0 0 0
88 1 1 5.0605955075724891e+00 -9.7834369593873449e-01 4.0979750400752062e+00 0 0 0
77 1 1 6.7018899753700190e-01 -3.9014450572564754e+00 5.8556548140915252e+00 0 0 0
67 1 1 6.1213428652571489e-01 -1.5336821737170521e+00 2.4099027630599323e+00 0 0 0
34 1 1 2.2526359722688123e+00 -3.2121491904152405e-01 6.8335799808747080e+00 0 0 0
6 1 1 1.7068466141138072e+00 -2.4943484018904742e+00 4.6932679532535571e-01 0 0 0
19 1 1 5.1960805828721650e+00 -1.6015041052592333e-01 2.1258738347455184e+00 0 0 0
66 1 1 1.5738699867178108e-01 -1.0660895575694329e+00 1.6484907607422905e+00 0 0 0
20 1 1 5.4440775824141499e+00 -5.9778014739464247e-01 2.9942146380325010e+00 0 0 0
13 1 1 1.2607796240049267e+00 -5.4244676497941446e-01 2.3919318268390555e+00 0 0 0
14 1 1 1.9239626154409983e+00 -5.7753802307472513e-02 1.8476456984270830e+00 0 0 0
99 1 1 4.7341484415134918e+00 4.3184521447815827e-01 -7.0756130594272837e-01 0 0 0
25 1 1 5.5934012089938809e+00 3.0582607188858391e-01 6.1390849644268135e+00 0 0 0
95 1 1 3.7005047104305397e+00 1.2296316103211662e+00 1.3991443365846701e+00 0 0 0
24 1 1 6.3658101711826793e+00 7.7396168511527419e-01 5.9234924152105455e+00 0 0 0
94 1 1 2.9327578173127029e+00 1.3537399919726969e+00 1.9549762543478753e+00 0 0 0
96 1 1 4.2791468910423269e+00 1.6501389562879529e+00 7.6131257893307180e-01 0 0 0
97 1 1 5.2430134283864867e+00 1.7170942763918204e+00 5.5066822026990314e-01 0 0 0
33 1 1 2.8512937974072017e+00 2.3063332486122370e-01 7.2724527848777658e+00 0 0 0
22 1 1 5.8052127157097582e+00 2.6764962682000115e-01 4.4385665335828390e+00 0 0 0
23 1 1 6.1448728116783915e+00 9.8250271994464300e-01 4.9828692994482449e+00 0 0 0
93 1 1 3.3966855324454923e+00 1.5853977193719484e+00 2.8099498239013130e+00 0 0 0
32 1 1 3.2155673042686086e+00 1.5582256250227539e-01 8.2033825341844988e+00 0 0 0
28 1 1 4.6848355824853369e+00 1.5493864960391903e+00 7.4853156866539816e+00 0 0 0
90 1 1 4.3701757307864915e+00 9.5975778565864853e-02 3.4541302446746993e+00 0 0 0
91 1 1 4.7292698774600979e+00 9.1097306999530481e-01 3.8360627754704018e+00 0 0 0
92 1 1 3.8917093696622302e+00 1.3851924550927148e+00 3.5621902453489755e+00 0 0 0
26 1 1 5.5711363585958633e+00 9.7228660738267203e-01 6.8619482528544218e+00 0 0 0
30 1 1 4.5783300393214885e+00 7.9760990491682338e-01 8.2322634172974851e+00 0 0 0
21 1 1 5.6185757885975312e+00 2.5207508026747893e-01 3.4478954784857678e+00 0 0 0
31 1 1 3.9054442413593873e+00 4.1887646616883761e-01 7.5225801304903603e+00 0 0 0
29 1 1 4.8834013543611574e+00 1.6888680219339345e+00 8.4528472349629986e+00 0 0 0
27 1 1 5.6995316591969161e+00 1.7153568251154876e+00 7.4914173987536534e+00 0 0 0
15 1 1 2.8146022498660925e+00 1.4629277410510670e-03 2.1758391976051432e+00 0 0 0
98 1 1 4.7223672288499214e+00 1.1348699823937394e+00 5.3054878599556564e-03 0 0 0

Velocities

70 7.3682143612514039e-01 5.7936968586411453e-02 1.3509562646970650e+00
68 -5.4132911032984743e-01 8.5275821267805274e-01 -2.8175405944207831e-02
73 1.2371577317916853e+00 -1.4643540104796759e+00 -5.4772914013800078e-01
74 7.8503165322992652e-01 -1.8295532810827819e-01 3.3719542471554875e-01
69 1.5173688247588397e+00 -2.6290959823900741e+00 1.0295583772146111e+00
72 9.1360747540381859e-01 1.7090250242569341e-01 -2.4221915984663753e+00
75 1.7520151645574561e-01 -1.0993703826739178e+00 -5.7763166009647771e-01
71 6.4028600911035780e-02 1.4651745048000044e+00 2.6268431802558101e-01
76 -1.5150217256707743e+00 9.8424388495811188e-01 -5.1336485438175988e-03
3 5.4629946031599219e-01 7.5003662690092054e-01 1.0893005631331711e-01
4 1.7493308307398483e+00 6.1540496601935279e-02 5.8732840218711713e-01
2 1.2143481674597520e+00 -1.6868582589593226e+00 -5.6561560868993876e-01
100 -1.6735810869705553e-01 6.8471221125996873e-01 5.8396831141643790e-02
1 -1.3620274678998090e+00 1.2065554004475501e+00 1.2181979357377066e+00
54 8.9493631655043893e-01 -2.0382274930958957e+00 -7.1240808832288616e-02
7 1.1445442421708538e+00 2.0125644835975298e-01 1.7752767168875936e+00
50 2.9694749240162016e-01 -1.4446939540377781e+00 6.5093778613204900e-01
10 -1.2443991610270482e+00 6.7294126431919521e-01 -6.5695064042866846e-01
63 2.8924283067388190e-01 -2.6537355652578443e+00 -9.1118759529652238e-01
18 -9.9054344505408443e-01 -1.8979923736936604e+00 7.0916133148648652e-01
65 1.1051201510174448e-01 1.1239388560749519e-03 7.6861421401925611e-01
89 -1.6800354054213384e+00 5.4985435840881502e-01 1.5359839945577249e+00
61 1.3341159819827844e+00 -1.7195051746038372e+00 1.4927785434302323e+00
62 2.0680753828524995e-01 2.7511870617002669e+00 -1.0807410637735060e+00
39 8.4886782015642070e-01 6.5481679581633268e-01 1.0565668897019114e+00
36 -9.1224364802168523e-01 3.7684582354223234e-01 1.9845946118121227e-01
52 -1.8198824404590286e-01 -5.5732917281980265e-01 2.5990634020938308e-01
41 1.6958327828242412e-01 -6.4425759607150812e-01 -1.8280589791612556e+00
59 -7.5447253135594805e-01 3.0258061933069308e-01 -8.9782209310185590e-01
40 -1.0786956990915468e+00 -6.0899745482395795e-01 -1.3740413125638999e+00
78 4.9587704847231290e-01 1.0058592467563308e-01 1.4075262044353407e+00
60 -9.3345878569743546e-01 9.0038435773154391e-01 -6.8292814329476381e-01
38 1.2869031408646675e-01 -1.4402653463800980e-01 1.1530625191522240e-01
86 7.4044484181902359e-01 9.9657175304258061e-01 4.7147683621411490e-01
43 -3.9087626804615089e-01 5.2404676065659661e-01 4.3860290063451357e-01
81 5.7638052348084445e-02 1.4508936341817313e-01 -1.7157698771170038e+00
42 3.1239664834483827e-01 -1.8948040385495286e+00 -6.5811712533902955e-01
82 1.6884967439767253e+00 1.8293335982364298e+00 -2.1605322719570966e-01
57 -8.4141503967419162e-01 9.2146315189651518e-01 4.9761258210624160e-02
49 -3.7771279182468276e-01 1.6514432269825454e+00 -2.8030855854743464e-01
58 -2.7175712510903849e-01 1.4029373568706309e+00 3.1750922324192699e-01
83 7.7605360598828915e-02 -3.3524895520251186e-01 -3.4659478449352926e-01
84 -1.3200133720181104e+00 2.8371572184667615e-01 1.9727837394546083e-01
11 -1.7077973170551013e+00 1.0854482654387532e+00 7.4019554691473566e-01
44 -9.7472305289636452e-01 -4.8205701011496233e-01 2.6877510751932221e-01
51 6.9739256609004663e-01 -4.0949425183768806e-01 7.6244264629130398e-01
55 1.3822976764120694e+00 -1.4593446399784493e+00 5.0615198536883699e-01
80 -1.6267974685207967e+00 1.4207101689322308e+00 -1.8813132261234629e+00
56 1.1862709942419243e+00 -6.1463439222484784e-01 7.7233275462946471e-01
46 -9.5538015306773016e-01 -8.8944595142308369e-01 -1.4810872762681377e+00
17 -6.8810300591323592e-02 -2.4985890470713434e-01 1.8696199476226332e+00
45 -2.8727267916983323e-01 -5.8352843065669457e-01 -2.1751386224681641e+00
8 3.4568001666096054e-01 5.6100553879836557e-01 -8.2921937674324564e-01
47 -5.5209907783602796e-01 -1.3456281578094722e+00 -1.8562034804524092e+00
48 1.2425882389654588e-01 5.1358755537392009e-01 -1.4025965899375765e+00
64 1.1883840637620842e+00 -2.1154055951312456e+00 -1.8585465451349683e+00
5 1.8640745343578974e-01 -1.9717779015758258e-01 1.6526549910347272e+00
53 1.1016005617833169e+00 -9.1655146032135676e-02 -1.3419954068348721e+00
85 5.8222697964980341e-01 -3.2082262857054261e-01 -1.2287219129840615e-01
87 5.2874327266942334e-01 -1.2983877873795446e-01 -3.1989212494412667e-01
35 3.2460822158501557e-01 1.4014375879084440e+00 -6.8753036003408630e-01
9 7.6545028766040202e-01 -1.3691824124546670e-01 2.6033726789223183e-01
12 3.4942861620951438e-01 -1.1072786616567318e+00 1.1681326039140942e+00
37 -1.3542685752348513e+00 -7.4514717923177182e-02 7.0117270262820186e-01
79 1.5475574986647722e-01 -9.1387319658401778e-01 6.7192418179548630e-01
16 7.1663103475606316e-01 -7.1269406561858678e-03 -8.2877515801184409e-02
88 4.5841194473958102e-01 7.3127461909845448e-01 7.1380385370808996e-01
77 -4.8930637158669732e-01 -2.0380329916537736e+00 -5.3728565440458154e-01
67 1.3158996078111507e+00 -8.9717452730268266e-02 -6.8122286571875479e-01
34 -9.2302596698462525e-01 2.0394607236527207e-01 1.1955018919080307e+00
6 -3.7949713672781588e-01 1.2137057747640034e-01 9.6749100867222926e-01
19 -1.0417205924894262e+00 1.4336666671504736e+00 2.4657704487711546e-01
66 4.0229482314585188e-02 1.1594258602513512e+00 -4.1144781577078904e-01
20 1.4375191340041402e+00 5.0922749758386121e-01 -7.4971278852349305e-02
13 -4.5063996458575251e-01 -4.8181459471592442e-01 5.4081477961559832e-01
14 -3.8862199985836782e-01 -8.7319487636253557e-01 -8.8083725023795101e-01
99 1.5314236523144691e+00 -1.2212446448948543e-01 9.8590299057638187e-01
25 4.1952726376968263e-01 -4.8990927058375855e-01 9.3424901672844485e-01
95 -4.3189644472876260e-01 3.3374685958762523e-01 8.0393060608813627e-01
24 -8.6241930672175293e-01 1.2410492263517865e+00 6.4715059109215878e-01
94 -1.1308420493264810e+00 7.2089511403178375e-02 -3.1873951894823471e-01
96 -2.8337723360641814e-01 8.0557524664450930e-01 -5.5952198683462173e-01
97 1.2710897323951533e+00 -1.2028466791061700e+00 9.2291331918078945e-01
33 3.2416443289221220e-01 -1.1426670354030040e+00 3.9582333311121737e-01
22 -1.5722209991545597e-01 4.8994405523223139e-01 3.2154110569123029e-01
23 -1.0794764828384076e+00 -4.3022208246771160e-01 3.0990517896339553e-01
93 -4.1319333730718677e-01 -8.6739782225296580e-01 1.6589092400608241e-01
32 -1.7075478536752873e+00 -1.6706100748618959e+00 1.0505146983706495e+00
28 1.0899697068188727e-01 -1.5354924695847702e-01 -5.9590159462504910e-01
90 -1.4404628733839759e+00 -7.5124212892198661e-01 7.2926142871770594e-01
91 -1.0474029279313261e-01 -7.3082361093340309e-01 -9.7993549315401862e-01
92 -2.9877096386635127e-01 4.3309366719857106e-03 3.9286919958759137e-01
26 3.5626452133289471e-01 -1.6471498262061006e+00 -1.6764499879379440e+00
30 -4.1409656239331583e-01 1.3558666710239051e-01 4.9063484840201621e-01
21 1.0159860452490719e+00 -4.0185901716970351e-01 -1.1469092423988916e+00
31 -6.6588199602059639e-02 3.2744988363077021e-01 8.4980778508930654e-02
29 7.9735035669898169e-01 -1.8388379542941877e-01 1.2253259366231222e+00
27 -1.9459596913059402e-02 -3.2769029834674579e-01 4.6407251542833622e-03
15 3.2019636656882822e-01 9.4497933561367864e-01 -1.0838930797065094e+00
98 -4.4888645114950873e-02 8.7131109040795285e-01 -4.6300149673142849e-01

Bonds

1 1 70 71
2 1 68 69
3 1 73 74
4 1 74 75
5 1 69 70
6 1 72 73
7 1 75 76
8 1 71 72
9 1 76 77
10 1 3 4
11 1 4 5
12 1 2 3
13 1 100 1
14 1 1 2
15 1 54 55
16 1 7 8
17 1 50 51
18 1 10 11
19 1 63 64
20 1 18 19
21 1 65 66
22 1 89 90
23 1 61 62
24 1 62 63
25 1 39 40
26 1 36 37
27 1 52 53
28 1 41 42
29 1 59 60
30 1 40 41
31 1 78 79
32 1 60 61
33 1 38 39
34 1 86 87
35 1 43 44
36 1 81 82
37 1 42 43
38 1 82 83
39 1 57 58
40 1 49 50
41 1 58 59
42 1 83 84
43 1 84 85
44 1 11 12
45 1 44 45
46 1 51 52
47 1 55 56
48 1 80 81
49 1 56 57
50 1 46 47
51 1 17 18
52 1 45 46
53 1 8 9
54 1 47 48
55 1 48 49
56 1 64 65
57 1 5 6
58 1 53 54
59 1 85 86
60 1 87 88
61 1 35 36
62 1 9 10
63 1 12 13
64 1 37 38
65 1 79 80
66 1 16 17
67 1 88 89
68 1 77 78
69 1 67 68
70 1 34 35
71 1 6 7
72 1 19 20
73 1 66 67
74 1 20 21
75 1 13 14
76 1 14 15
77 1 99 100
78 1 25 26
79 1 95 96
80 1 24 25
81 1 94 95
82 1 96 97
83 1 97 98
84 1 33 34
85 1 22 23
86 1 23 24
87 1 93 94
88 1 32 33
89 1 28 29
90 1 90 91
91 1 91 92
92 1 92 93
93 1 26 27
94 1 30 31
95 1 21 22
96 1 31 32
97 1 29 30
98 1 27 28
99 1 15 16
100 1 98 99

Angles

1 1 69 70 71
2 1 67 68 69
3 1 72 73 74
4 1 73 74 75
5 1 68 69 70
6 1 71 72 73
7 1 74 75 76
8 1 70 71 72
9 1 75 76 77
10 1 2 3 4
11 1 3 4 5
12 1 1 2 3
13 1 99 100 1
14 1 100 1 2
15 1 53 54 55
16 1 6 7 8
17 1 49 50 51
18 1 9 10 11
19 1 62 63 64
20 1 17 18 19
21 1 64 65 66
22 1 88 89 90
23 1 60 61 62
24 1 61 62 63
25 1 38 39 40
26 1 35 36 37
27 1 51 52 53
28 1 40 41 42
29 1 58 59 60
30 1 39 40 41
31 1 77 78 79
32 1 59 60 61
33 1 37 38 39
34 1 85 86 87
35 1 42 43 44
36 1 80 81 82
37 1 41 42 43
38 1 81 82 83
39 1 56 57 58
40 1 48 49 50
41 1 57 58 59
42 1 82 83 84
43 1 83 84 85
44 1 10 11 12
45 1 43 44 45
46 1 50 51 52
47 1 54 55 56
48 1 79 80 81
49 1 55 56 57
50 1 45 46 47
51 1 16 17 18
52 1 44 45 46
53 1 7 8 9
54 1 46 47 48
55 1 47 48 49
56 1 63 64 65
57 1 4 5 6
58 1 52 53 54
59 1 84 85 86
60 1 86 87 88
61 1 34 35 36
62 1 8 9 10
63 1 11 12 13
64 1 36 37 38
65 1 78 79 80
66 1 15 16 17
67 1 87 88 89
68 1 76 77 78
69 1 66 67 68
70 1 33 34 35
71 1 5 6 7
72 1 18 19 20
73 1 65 66 67
74 1 19 20 21
75 1 12 13 14
76 1 13 14 15
77 1 98 99 100
78 1 24 25 26
79 1 94 95 96
80 1 23 24 25
81 1 93 94 95
82 1 95 96 97
83 1 96 97 98
84 1 32 33 34
85 1 21 22 23
86 1 22 23 24
87 1 92 93 94
88 1 31 32 33
89 1 27 28 29
90 1 89 90 91
91 1 90 91 92
92 1 91 92 93
93 1 25 26 27
94 1 29 30 31
95 1 20 21 22
96 1 30 31 32
97 1 28 29 30
98 1 26 27 28
99 1 14 15 16
100 1 97 98 99
