LAMMPS data file via write_data, version 12 Dec 2018, timestep = 20000

200 atoms
1 atom types
200 bonds
1 bond types
200 angles
1 angle types

-3.5000000000000000e+01 3.5000000000000000e+01 xlo xhi
-3.5000000000000000e+01 3.5000000000000000e+01 ylo yhi
-3.5000000000000000e+01 3.5000000000000000e+01 zlo zhi

Masses

1 1

Atoms # angle

140 1 1 -1.5115502687785971e+00 3.5918455156724431e+00 -1.4364872880313826e+00 0 0 0
141 1 1 -1.2603354206263870e+00 3.4307888096403905e+00 -4.9247901884266820e-01 0 0 0
139 1 1 -9.3156906309017884e-01 2.9215530015910351e+00 -1.9145380904300189e+00 0 0 0
5 1 1 -3.1088246311312893e+00 6.2733643720430454e-01 -1.1453958881959309e-01 0 0 0
6 1 1 -2.4692822491148307e+00 1.3441152805026757e+00 -8.3920034098814739e-02 0 0 0
59 1 1 -1.2341650748533310e+00 2.1508197281678809e+00 5.6358926478028897e+00 0 0 0
8 1 1 -9.4472657941300853e-01 1.8842089675246412e+00 8.4992894430443278e-01 0 0 0
60 1 1 -1.1511278886752414e+00 2.7527216746973724e+00 4.8998435026435461e+00 0 0 0
10 1 1 -5.4025923793624964e-01 7.0379600525432862e-01 2.0925732936507178e+00 0 0 0
181 1 1 -3.8918847510551274e-01 2.8950214746182468e+00 3.2695514244491570e+00 0 0 0
3 1 1 -3.3269937612163401e+00 1.6385585573913255e+00 7.1534974863541134e-01 0 0 0
2 1 1 -3.3244368404891063e+00 1.9170504884844668e+00 1.6433880013528390e+00 0 0 0
1 1 1 -3.2717954613890909e+00 2.8287250217817816e+00 1.9112532224767045e+00 0 0 0
199 1 1 -4.1400251978616662e+00 3.2079759639765473e+00 3.2195821484887044e+00 0 0 0
160 1 1 -7.0217419289959682e-01 3.5288391414100029e+00 7.0766776346194940e+00 0 0 0
196 1 1 -3.0665368052494348e+00 3.8579429403346035e+00 4.8591153589337992e+00 0 0 0
64 1 1 -6.1413311355978262e-01 5.6369373088736197e+00 2.8749997290526137e+00 0 0 0
195 1 1 -2.5953040855827076e+00 4.6587404882323371e+00 5.0164039061388221e+00 0 0 0
65 1 1 -1.3098388946989883e+00 5.1515870075095558e+00 2.4055277164156457e+00 0 0 0
66 1 1 -6.7371543354053542e-01 5.4658899932577931e+00 1.7580906786217152e+00 0 0 0
161 1 1 -1.0754056731816044e+00 3.3398572012199983e+00 6.2880203065910703e+00 0 0 0
194 1 1 -2.9876512473247141e+00 5.4718111444625785e+00 5.4091060100244848e+00 0 0 0
193 1 1 -3.2515964617154660e+00 6.1079188124587844e+00 6.0332069062838265e+00 0 0 0
163 1 1 -2.0991279042690789e+00 3.7789371608483733e+00 5.7805218250915438e+00 0 0 0
200 1 1 -4.1325953570159104e+00 2.7938738782727248e+00 2.3938574986340364e+00 0 0 0
198 1 1 -4.2198438428960872e+00 3.8752622642249670e+00 3.9095765776424769e+00 0 0 0
63 1 1 -4.4428957429050081e-01 4.6908943814499624e+00 2.9623563584192323e+00 0 0 0
197 1 1 -3.7875857410736700e+00 4.4394847927168266e+00 4.5721858125632098e+00 0 0 0
192 1 1 -3.1725877513615832e+00 7.1047570149663750e+00 6.0428028489922285e+00 0 0 0
177 1 1 -2.8781949551276140e+00 2.0589983930305986e+00 4.3878929191436420e+00 0 0 0
178 1 1 -2.2105443498984889e+00 2.5450804050502107e+00 3.8611792844805155e+00 0 0 0
179 1 1 -1.5962104204105552e+00 1.8273905045576730e+00 3.5492992302072595e+00 0 0 0
62 1 1 -1.0310364153119371e+00 4.2906713384257227e+00 3.6485019549915845e+00 0 0 0
145 1 1 -3.0847755272144611e-01 2.1124941310927858e+00 1.9414711946359822e+00 0 0 0
180 1 1 -6.8827668573937129e-01 2.0724937873088911e+00 3.6228252086764212e+00 0 0 0
162 1 1 -1.3219368600835371e+00 4.2593222591401751e+00 6.0145567079482589e+00 0 0 0
190 1 1 -1.9334492556521397e+00 6.4882024556588513e+00 5.8666535239326851e+00 0 0 0
191 1 1 -2.2383050675577394e+00 7.4119849785636953e+00 5.8871134575553867e+00 0 0 0
171 1 1 -4.7685790367378047e+00 1.2457145476643252e+00 7.5909933063327486e+00 0 0 0
176 1 1 -3.2036334587091013e+00 1.2908538635885396e+00 4.8534274210979937e+00 0 0 0
169 1 1 -5.6322222433339526e+00 2.7246186592740957e+00 6.7855886924286244e+00 0 0 0
170 1 1 -5.3315749976139459e+00 1.9103871170398559e+00 7.1950626198988505e+00 0 0 0
175 1 1 -3.1602811323578712e+00 4.7247995105967489e-01 5.4606224978876394e+00 0 0 0
168 1 1 -4.6772032359882489e+00 2.8678717831195497e+00 6.8377945599004644e+00 0 0 0
142 1 1 -1.6060467573911226e+00 2.9504288977719022e+00 2.2279325983575371e-01 0 0 0
143 1 1 -1.0543235074981638e+00 3.3778061863633329e+00 8.4137058380054131e-01 0 0 0
9 1 1 -9.3255097008273735e-01 1.1221006491264540e+00 1.3643805474705388e+00 0 0 0
189 1 1 -1.5261816269679556e+00 5.6261471142349784e+00 6.1419878746332097e+00 0 0 0
188 1 1 -5.9353244981330255e-01 5.3168656813146642e+00 6.2190511981941015e+00 0 0 0
187 1 1 -8.2548680026472132e-01 5.3271404782369043e+00 5.2416668584439430e+00 0 0 0
174 1 1 -3.2877918026900401e+00 7.2246851347645347e-01 6.3829864721363574e+00 0 0 0
172 1 1 -3.8277651579419367e+00 1.2471778994282352e+00 7.8386163337047110e+00 0 0 0
173 1 1 -3.1247494863695695e+00 1.1364328856055423e+00 7.2304057765715619e+00 0 0 0
167 1 1 -3.8682963251765101e+00 2.7092778609443902e+00 7.2994023632239209e+00 0 0 0
166 1 1 -3.3042751418258893e+00 3.4385959427121486e+00 6.9819935497289904e+00 0 0 0
58 1 1 -6.9460593372703072e-01 1.4493568187880170e+00 5.2037801317549430e+00 0 0 0
61 1 1 -1.0912223543751465e+00 3.5709249795325015e+00 4.3417369580039038e+00 0 0 0
68 1 1 -1.3442355542716933e-01 4.5338772540456826e+00 1.6302666804924817e+00 0 0 0
164 1 1 -2.3927298224218676e+00 3.9046597194417001e+00 6.7316379472871173e+00 0 0 0
159 1 1 -7.1048485586595023e-01 3.7581836018217523e+00 8.0693126963880939e+00 0 0 0
165 1 1 -2.4958760434234053e+00 2.9510161240580528e+00 6.8486888506852024e+00 0 0 0
14 1 1 -6.0684708176359160e-02 1.1259572461159346e+00 5.0280167644877394e-01 0 0 0
4 1 1 -3.6487585660436732e+00 7.6254534369646054e-01 7.1767311935675926e-01 0 0 0
144 1 1 -6.3364366458516652e-01 3.0026046410671432e+00 1.6194290850090340e+00 0 0 0
7 1 1 -1.8513245636056057e+00 1.6353249868439663e+00 6.3088158521584026e-01 0 0 0
128 1 1 2.1951016196077178e+00 -1.9177317984260949e+00 -1.3210643948992304e+00 0 0 0
124 1 1 7.1612428035834730e-01 -3.8448842872533173e-01 -2.4166302077059196e-01 0 0 0
130 1 1 1.5141576862240180e+00 -1.0952947178244539e+00 -2.2400796266659606e+00 0 0 0
132 1 1 1.2782128211432109e+00 -4.2343888094792942e-01 -3.5619296419708109e+00 0 0 0
126 1 1 1.5641854416848759e+00 -1.3926675999590086e+00 -2.9072771366695899e-01 0 0 0
129 1 1 2.3160164364822480e+00 -1.5876221201369116e+00 -2.2137843736216998e+00 0 0 0
127 1 1 2.4998453728403307e+00 -1.3715246792992173e+00 -6.1064983711128740e-01 0 0 0
80 1 1 4.1594884922217776e+00 -8.1179185905709528e-01 -2.7675324165238757e-01 0 0 0
131 1 1 9.4830066118668721e-01 -4.4102102612022676e-01 -2.6854732125911123e+00 0 0 0
79 1 1 3.8580139670092843e+00 -7.5179784948383982e-02 -7.9170186656875763e-01 0 0 0
41 1 1 4.3714765172891035e+00 -1.1159486209408478e-01 6.2689211512070973e+00 0 0 0
47 1 1 3.7322034207855808e+00 -2.1555033043212846e+00 7.9331814353726999e+00 0 0 0
53 1 1 2.0951218590764614e-01 -1.8608857741161255e+00 6.1951324953668170e+00 0 0 0
31 1 1 4.2608919453958052e+00 -1.5140478604646224e+00 3.7762166445205114e+00 0 0 0
30 1 1 4.1632911700296109e+00 -5.9052047897559135e-01 4.0047604723839072e+00 0 0 0
32 1 1 5.1157965380504082e+00 -1.7496248819829447e+00 4.3047713649287349e+00 0 0 0
81 1 1 4.2031405857496571e+00 -1.2152763624798169e+00 5.9409888411828871e-01 0 0 0
37 1 1 6.4881000127006194e+00 -1.6608672887595506e+00 5.7462711079462423e+00 0 0 0
33 1 1 5.8052223312208024e+00 -1.8994851694865680e+00 3.6067201932526864e+00 0 0 0
34 1 1 6.7065148284394187e+00 -1.9464999510453462e+00 3.8615007806141604e+00 0 0 0
35 1 1 6.8021793624328302e+00 -1.4968059686004858e+00 4.6812242954999084e+00 0 0 0
98 1 1 8.2122005386302579e+00 -7.5494220564283621e-01 5.1462011999580133e+00 0 0 0
36 1 1 6.1097322269287124e+00 -1.0260204217843603e+00 5.1580261080728746e+00 0 0 0
101 1 1 7.8290674929331345e+00 -1.8942898246135880e+00 7.3160913446513138e+00 0 0 0
120 1 1 1.9292588468605425e+00 -2.1873263428622741e-01 1.4741665681493334e+00 0 0 0
49 1 1 3.0098823182489771e+00 -2.6455400084509750e+00 6.2795088887827237e+00 0 0 0
38 1 1 5.5583801062723852e+00 -1.8707587797147240e+00 5.5500512128525337e+00 0 0 0
43 1 1 3.1121956710007987e+00 -7.5144908905636332e-01 7.6005295719886643e+00 0 0 0
42 1 1 3.6473552828834901e+00 -6.5340096083869981e-01 6.8089173586802207e+00 0 0 0
103 1 1 7.7416471502433621e+00 -1.1242430504484491e+00 8.0467631443116936e+00 0 0 0
50 1 1 2.5727931439124050e+00 -3.1221561012443857e+00 5.5355355717673209e+00 0 0 0
52 1 1 1.1016916340804572e+00 -2.2856011595952590e+00 6.1649282695625862e+00 0 0 0
44 1 1 3.9318828297799913e+00 -9.6152425694071675e-01 8.1394933300293122e+00 0 0 0
45 1 1 4.4009223839000775e+00 -1.1828867669457903e+00 9.0034918863233599e+00 0 0 0
46 1 1 3.6966317559124389e+00 -1.7939471555289377e+00 8.8238852463825506e+00 0 0 0
39 1 1 4.7762130400789724e+00 -1.7677965927303363e+00 6.1236109623420880e+00 0 0 0
48 1 1 3.5596041980555593e+00 -2.5692537497550747e+00 7.0554665466559259e+00 0 0 0
99 1 1 8.1757723872521577e+00 -9.0442320975581658e-01 6.0937009412938439e+00 0 0 0
55 1 1 1.0007211549955883e+00 -8.3380232062696225e-01 5.2227656074706861e+00 0 0 0
102 1 1 7.3215241657546892e+00 -2.0112351325001834e+00 8.1047417698467115e+00 0 0 0
104 1 1 7.6903431658536130e+00 -4.2920691469290090e-01 8.6489285953445414e+00 0 0 0
122 1 1 2.0702281590949663e+00 -2.2673940967169309e-01 9.7441571672229818e-02 0 0 0
82 1 1 3.8965844772726763e+00 -1.8090056765257110e+00 1.2608699582245206e+00 0 0 0
51 1 1 1.9427318647338989e+00 -2.7743604961200057e+00 6.1999462406348540e+00 0 0 0
100 1 1 8.1732382792158607e+00 -1.7897434140438107e+00 6.4247171610989442e+00 0 0 0
85 1 1 4.8244490138827310e+00 -1.2568754057512865e+00 2.2376252891500434e+00 0 0 0
84 1 1 4.2592999788447541e+00 -1.9880960131667245e+00 2.3695693761091472e+00 0 0 0
86 1 1 5.3178942866680963e+00 -3.4389417381604931e-01 2.2242200405352963e+00 0 0 0
83 1 1 3.9011561121459772e+00 -2.6537153361229704e+00 1.7576023641046405e+00 0 0 0
40 1 1 4.6124600298256508e+00 -9.2115522861491483e-01 5.8148440825572294e+00 0 0 0
54 1 1 5.6478259972098588e-01 -1.0240184612845471e+00 6.0276054747657177e+00 0 0 0
96 1 1 9.4200839209945251e+00 -1.3876418233055953e-02 5.6007973550913634e+00 0 0 0
97 1 1 8.4500663709914647e+00 -2.2941298833151418e-02 5.7662868011534547e+00 0 0 0
125 1 1 8.1396575106177504e-01 -1.2103729118435183e+00 2.6323197202358328e-01 0 0 0
135 1 1 1.5579371908087742e+00 1.4102350046961927e+00 -2.9632721148450099e+00 0 0 0
77 1 1 3.5626188418143006e+00 1.4771046974474211e+00 -4.6705434836416682e-01 0 0 0
20 1 1 2.4743192487607013e+00 3.3562877468495445e+00 -1.5521406118877573e-01 0 0 0
133 1 1 8.7772054730692251e-01 4.8277713179970499e-01 -3.3126349936698691e+00 0 0 0
136 1 1 1.2525548695087816e+00 2.3622901780079317e+00 -3.1110755112128592e+00 0 0 0
16 1 1 2.6332311171383527e-01 2.8225752456054480e+00 -1.1385624083888028e-01 0 0 0
21 1 1 3.3598415914951354e+00 3.6058210884387116e+00 -4.7651916372706049e-01 0 0 0
17 1 1 4.9499910568895866e-01 3.3810009989627900e+00 -7.8042361936595683e-01 0 0 0
137 1 1 7.6577821172781979e-01 2.4678526164727539e+00 -2.3398087311312996e+00 0 0 0
18 1 1 1.4205098827175744e+00 3.4085307049355626e+00 -1.1183911090945615e+00 0 0 0
134 1 1 1.7620254017199952e+00 6.6851260762383768e-01 -3.5614745587083059e+00 0 0 0
19 1 1 1.6405104489227385e+00 3.8349545338298321e+00 -3.0575184648237341e-01 0 0 0
78 1 1 4.0283568452729313e+00 8.5314129607592160e-01 -1.0369627346927250e+00 0 0 0
23 1 1 4.0054559560789444e+00 2.5664834663675138e+00 -8.1918163477885012e-02 0 0 0
123 1 1 1.3316939814222497e+00 3.5481740507747261e-01 -1.1443973418053649e-01 0 0 0
138 1 1 1.0681211524145424e-02 2.8115292002854506e+00 -1.8773818548261314e+00 0 0 0
12 1 1 4.5148841969509396e-01 1.0223418457194207e+00 1.4103581323283136e+00 0 0 0
156 1 1 8.5037457177467612e-01 4.8015221937063819e+00 7.2736264391346630e+00 0 0 0
28 1 1 4.0710912651775688e+00 1.0858464042624312e+00 3.4564342684208276e+00 0 0 0
95 1 1 9.5288230338085906e+00 6.3892957426915709e-01 4.8928769155951146e+00 0 0 0
158 1 1 2.6062653631411824e-02 3.8908766881072050e+00 8.6239885057419716e+00 0 0 0
150 1 1 2.5908636505911349e+00 2.6355565153313329e+00 3.8599773141145364e+00 0 0 0
182 1 1 1.7185023672497948e-01 3.6377326606278872e+00 3.6116347950942020e+00 0 0 0
148 1 1 1.5884597129793223e+00 1.9393714898226868e+00 2.4042170608829685e+00 0 0 0
113 1 1 4.0157683126605592e+00 1.5735357702864416e+00 5.4884542127989855e+00 0 0 0
25 1 1 3.6929724272643765e+00 1.1538545591511384e+00 6.9604524683981395e-01 0 0 0
73 1 1 2.1429530241182757e+00 2.5437326032756884e+00 9.1515726432571975e-01 0 0 0
153 1 1 2.2531255196318170e+00 3.7139027981802397e+00 5.5180008489507903e+00 0 0 0
155 1 1 7.7934803817893294e-01 4.6112064965053801e+00 6.3724893135784368e+00 0 0 0
110 1 1 5.8445639288742903e+00 2.5480753342285594e+00 6.6144772940131373e+00 0 0 0
151 1 1 2.4386671748335180e+00 2.7791899043012198e+00 4.7992431687334491e+00 0 0 0
107 1 1 5.5665127551437736e+00 3.1269038343072930e-01 8.1321839143896497e+00 0 0 0
29 1 1 4.5435891001001387e+00 2.8680550112203002e-01 3.6944269386079918e+00 0 0 0
26 1 1 4.0786369848755024e+00 1.3492493353059622e+00 1.5850307883036678e+00 0 0 0
89 1 1 6.6810163015982864e+00 1.5874955395432830e+00 3.1330426730178411e+00 0 0 0
90 1 1 7.5772374017895530e+00 1.3909737195937273e+00 3.4772387280182140e+00 0 0 0
91 1 1 8.5703463614574051e+00 1.5114390043725037e+00 3.6365490677318877e+00 0 0 0
108 1 1 5.5230244945303681e+00 1.2981815307111357e+00 8.0052387878625950e+00 0 0 0
24 1 1 4.2574614255580148e+00 2.0124718430387407e+00 6.4407674721304309e-01 0 0 0
157 1 1 4.8022331134113488e-01 4.1464679625117880e+00 7.7898926269230557e+00 0 0 0
92 1 1 9.1937937599374688e+00 1.9081196459386307e+00 4.3008277812214253e+00 0 0 0
72 1 1 1.5959585204732749e+00 2.8185714138544959e+00 1.3584840194256761e-01 0 0 0
56 1 1 6.9946311557068541e-01 6.9344174249631033e-02 5.4623089794696602e+00 0 0 0
71 1 1 9.0485418262059658e-01 3.4472361342426456e+00 4.2583247895369108e-01 0 0 0
154 1 1 1.5416765711303713e+00 4.2422849853131712e+00 5.9061581824078084e+00 0 0 0
117 1 1 2.5309505492194391e+00 9.5728220841431300e-01 2.9746824497161248e+00 0 0 0
116 1 1 2.6426347346376904e+00 1.5172514975107365e+00 3.7863043802320457e+00 0 0 0
69 1 1 8.9452750938638437e-01 4.4538621739713049e+00 1.6614486642565078e+00 0 0 0
186 1 1 1.0407722482584220e-01 5.5488655379100527e+00 5.3763994783094873e+00 0 0 0
75 1 1 2.1777792277351833e+00 1.7116930472333307e+00 1.5942635643781936e-01 0 0 0
93 1 1 1.0086366457200116e+01 1.6869146526543286e+00 3.9957070331289106e+00 0 0 0
70 1 1 9.9173253167400111e-01 3.4636838622936921e+00 1.3893282864611929e+00 0 0 0
15 1 1 1.1865255969780046e-02 2.0750340969462626e+00 4.2287716255578306e-01 0 0 0
118 1 1 2.6927212725459890e+00 6.6457527173796371e-01 2.0607247618546305e+00 0 0 0
115 1 1 3.3427042649680874e+00 1.1581898108331625e+00 4.3852014398862558e+00 0 0 0
152 1 1 1.6817287572785018e+00 3.2842024904477114e+00 4.8904101513763631e+00 0 0 0
147 1 1 7.0908564488835801e-01 2.1648009199035187e+00 2.8906059912256392e+00 0 0 0
57 1 1 1.1910092816219808e-01 9.4757667998965556e-01 5.4354214446882692e+00 0 0 0
184 1 1 8.4532914796143876e-01 4.6116639986052519e+00 4.4269138068413456e+00 0 0 0
183 1 1 1.0335231322398524e+00 3.7538113296143503e+00 3.9968327656262232e+00 0 0 0
67 1 1 1.9362599519796517e-01 5.3431766999963806e+00 2.0503020192658163e+00 0 0 0
74 1 1 1.7392278884493353e+00 1.6963951512168156e+00 1.0027223338517213e+00 0 0 0
146 1 1 6.5253223782402492e-01 2.5643044871761909e+00 2.0295199080187922e+00 0 0 0
109 1 1 5.7635640206584595e+00 1.9504568512115239e+00 7.3115887559439878e+00 0 0 0
112 1 1 4.3883112493748850e+00 2.4389501042396637e+00 5.4955374135347750e+00 0 0 0
114 1 1 3.2635330294630949e+00 9.8679022084428780e-01 5.3931436710179845e+00 0 0 0
111 1 1 5.2241791134543174e+00 2.2604045302232030e+00 5.9420200877270339e+00 0 0 0
88 1 1 6.6709181285534820e+00 9.8688170833079114e-01 2.3931416568238628e+00 0 0 0
149 1 1 1.9112121456246689e+00 2.1338455182222731e+00 3.3786771903148192e+00 0 0 0
27 1 1 4.3812861569972679e+00 1.1642697919586167e+00 2.5171109987604394e+00 0 0 0
13 1 1 1.9088666093945142e-01 2.5413701250034976e-01 8.1416911305790585e-01 0 0 0
121 1 1 2.3467830451416769e+00 3.4130523339017654e-01 8.1423257360592438e-01 0 0 0
185 1 1 9.7913092932628554e-01 5.2523124357223363e+00 5.1257616923627154e+00 0 0 0
94 1 1 1.0245951213229219e+01 1.2220327465858047e+00 4.8443083249900054e+00 0 0 0
119 1 1 1.7988728596107402e+00 2.7291846462671332e-01 2.3071514564598985e+00 0 0 0
11 1 1 3.5496365598667262e-01 6.5761239747608113e-01 2.2895913274350548e+00 0 0 0
87 1 1 5.9004456450549743e+00 4.3834176948897596e-01 2.1856089763863493e+00 0 0 0
106 1 1 6.4957740703648179e+00 2.8202993712764757e-01 8.0234075411930839e+00 0 0 0
105 1 1 7.1356153576749177e+00 3.3511446977059639e-01 8.7503445043372405e+00 0 0 0
76 1 1 3.0543083938189124e+00 2.1273466319123782e+00 4.0953215288414752e-02 0 0 0
22 1 1 4.1721458817209873e+00 3.5021709050482981e+00 3.4486268697427214e-02 0 0 0

Velocities

140 9.1680868895292789e-01 -1.9984763131083412e+00 1.3036696267219969e+00
141 -1.7498890638831310e-01 1.4610172658963521e+00 -1.0462665446007624e+00
139 1.8567025831468102e+00 1.3503751808700432e-01 -2.3113254317536396e+00
5 -1.3871177983639462e+00 2.5796420365149597e+00 1.9318647939904526e-01
6 -9.3504186943657763e-01 9.3018521442774693e-01 1.4875706561495797e-01
59 -1.5169079245194972e+00 3.2961076472139522e-01 2.2900957971285790e-01
8 -5.6743120048287443e-01 -1.0298404548000148e+00 4.8280108304828906e-01
60 -5.3836174493356308e-02 -1.4984602430812792e+00 -1.9553519830996646e+00
10 -1.3826183090664365e-01 -6.3189736076673653e-01 -9.2966051038450859e-01
181 -1.6510009629699778e+00 -3.9431648820600074e-01 7.4568520727485599e-01
3 6.5036901928784541e-01 4.2787067963413944e-01 5.9654902583260519e-03
2 2.0433137338383037e-02 -7.4683806442540701e-01 8.6670225330241979e-01
1 -1.1063230616970830e-01 -6.7425312912870183e-03 -3.7075839450964110e-01
199 1.0700797831269351e+00 -1.3424702482941926e+00 -2.3224397369729366e-02
160 1.0188592296376127e+00 1.2303667233393600e+00 3.5644882248526721e-01
196 -3.9026970303307140e-01 4.0537346560728504e-01 -2.7560118090816388e-01
64 1.6271003150312930e+00 -1.3656340881641973e+00 -8.3514373879752046e-01
195 9.9835353796816961e-02 -4.2262905642714699e-01 -1.0694861438147094e-01
65 -1.7922145122944975e+00 8.4012120236364329e-01 -2.2088480326146014e+00
66 9.6110389430705423e-01 2.2605537863821037e+00 4.5626245557436484e-01
161 2.8368342134543034e-02 5.5280541078136969e-01 -1.7917240114316861e+00
194 -4.5074174487086360e-01 -7.8079025150098083e-02 -1.4895311721552895e-02
193 9.0692915125797979e-01 8.9705766729055170e-01 -2.8432112913667329e-01
163 -8.4557824469168819e-01 -1.2056785663962725e-01 -9.2045214688285271e-01
200 2.7833083763254440e-01 -2.1166176825044547e-01 2.1248125660400605e+00
198 -5.9674702264572374e-04 -7.8800703669863414e-01 6.9125359175631484e-01
63 1.0593222951568277e+00 8.3675192286552913e-01 1.3157603273275726e+00
197 4.2687227045004306e-01 -5.1270126931819349e-01 3.5278276099891409e-01
192 -1.6461381113914916e-01 -3.7105171365988243e-01 -7.0463309252409934e-01
177 -9.3768225412388079e-02 -1.1996614620833332e+00 -4.3768930854964111e-01
178 -8.5176907587239048e-01 2.5696877108982147e-01 3.9118502652309139e-01
179 -1.0402750596548895e+00 -3.6923040177212108e-01 9.3409222801033642e-01
62 9.3605819807839297e-01 -6.8483470657126344e-01 4.8580981367715442e-01
145 -2.9151509707253970e-01 -9.1682105138405634e-02 -1.0633086174584252e+00
180 2.1501915295164986e-02 -2.0857890101527836e+00 1.4965572648491285e-01
162 -2.1751829819972812e-02 -4.4230345761558143e-01 -4.3891298242204368e-01
190 1.5146231999919407e-01 -6.9144921066747334e-01 -1.6246400412259965e+00
191 -2.7298764147085017e+00 -3.2543108501679524e-01 -1.0476614390047252e+00
171 1.3092891796878343e+00 -3.3365737972301573e-01 2.2322472729856502e-01
176 -8.2163051269862342e-04 3.6353842610606357e-01 -6.2165821960707712e-01
169 -8.5197352868785514e-01 1.6065246239694555e+00 4.6843672466103312e-02
170 -2.9607740448705067e-01 -5.5828079944141062e-01 -1.1622274209405448e+00
175 -1.2032996416165571e-01 3.6436729333042445e-01 -1.4424066517966785e+00
168 1.1161803866213389e+00 -1.0394478980294841e+00 -2.4319034094590544e+00
142 -9.6570342661002440e-01 -1.5720465185517549e+00 -2.2331941196469740e-01
143 -4.9021884506146740e-01 -5.4302721259005138e-01 -3.0275633626829201e-01
9 -7.9908173650669156e-01 9.2704430824805395e-01 -4.8394605492890858e-01
189 1.1073413598867541e+00 2.7106545534196858e-01 5.1771396757462496e-01
188 7.0819106744626870e-01 -1.6850499955064882e+00 -1.5764176443374961e-01
187 1.3860564983848176e+00 1.7905194341553581e+00 1.5760489948007250e-01
174 3.9940560583810186e-01 -3.7971438365140865e-02 -3.0219008964964067e-01
172 -3.3966729632203563e-01 5.2563236051407780e-01 1.9217894725616764e+00
173 1.2033126994759287e+00 -2.5940381489619724e-01 1.6071731762194261e+00
167 7.3943098150846476e-01 -1.0962760430645098e+00 9.5946264843665641e-02
166 -2.7174179403215465e-01 1.9373020328198056e+00 8.2253308679822223e-01
58 -3.5611210071371513e+00 1.2632097975124765e+00 2.4508144205887542e-01
61 7.7474796788303268e-02 -5.3923662226708624e-01 1.8997870271691458e-01
68 7.9972819219230717e-01 -4.5799670377925850e-01 1.1378612159838490e+00
164 3.4123665928869218e-01 -1.1310356488860700e+00 -1.4387385882566778e-01
159 -4.1131731919705772e-01 -3.4325889822650441e-01 -6.3569682808645678e-01
165 -2.4507170597467437e-01 1.3842479060481701e+00 1.2267945186590450e+00
14 3.5747731633744881e-02 -5.8557681099189823e-02 -1.3461199229981247e+00
4 -1.1511150159987462e+00 9.2977141716779277e-01 4.6057111183944666e-01
144 -9.7777201645087086e-01 6.8000838600118318e-01 2.4424312054975665e+00
7 7.2590971000017879e-01 -5.1446139336305330e-01 6.8364852546986321e-01
128 -6.5987730988439974e-01 -1.9056568676916266e+00 2.8299034338179702e-01
124 3.7527908798030141e-03 -9.1915414737145695e-01 4.9817777262033380e-01
130 1.9732896534731539e+00 3.9781269260252150e-01 1.3606768774800293e+00
132 -3.0943834624876276e-01 -5.4289480390643574e-02 -4.8972349035458101e-04
126 2.8413086520950592e-01 -4.3129217088493549e-01 8.8837832354693402e-01
129 9.9464971821130288e-02 9.4115039579588222e-02 -1.6276390596135533e+00
127 -1.4573032785777991e+00 -5.1763451826142948e-01 -2.3714663128527746e-01
80 -9.4565930756715100e-01 -8.0063147995509498e-01 2.0994065956733219e+00
131 -1.1236490057167574e+00 9.1741925523186363e-01 7.0910128412092033e-01
79 6.8329585366253742e-01 -5.4814879854516541e-01 3.2522081723951690e-01
41 1.7171382296921009e+00 -3.3548338544861722e-02 -1.0956131344184326e+00
47 -4.2179570887608930e-01 -1.4151016641419933e-01 -1.1011279924118684e+00
53 1.5965071834167257e+00 -5.0586428367267444e-01 -1.9737923600131944e+00
31 -2.6822132327245923e-02 9.5239922542041916e-02 -5.3196370053880448e-01
30 -1.0712481785955714e+00 6.0522274773181550e-01 -6.4416113588107471e-01
32 6.7533476231584155e-01 1.9541593924461403e-01 5.0166294953286317e-01
81 -4.8499622123131358e-01 2.3388654745236450e+00 2.2002062094632338e-01
37 5.2543680226476708e-01 7.1470080891005650e-01 7.1479371927438862e-01
33 -8.5755484557800943e-01 8.3444128585339516e-01 2.6917075091695861e+00
34 -8.2591150861761742e-01 -7.2548686333033152e-01 1.4560535773671390e+00
35 7.5252134360481837e-01 -1.1129343755570972e-01 -9.3668787721822300e-01
98 -4.2346914797829194e-01 -1.1078869671148077e+00 -1.1955190733330154e-01
36 1.7073762163407055e-01 3.1350931915058650e-01 -1.2633472036690643e+00
101 4.7289911715528410e-01 -3.2584002031329962e-01 1.8436199631182526e+00
120 -3.2304423836228210e-02 1.4213109920926188e+00 -2.6286723104172394e-01
49 -2.1015714513111444e-01 -8.7097268100587821e-01 -1.5907275843942514e+00
38 1.5999151258556570e+00 -9.2962656631251972e-01 -1.0437555668790315e+00
43 1.5018737157460413e+00 7.5531113877351452e-01 -3.6365425065560442e-01
42 -2.7779911536939768e+00 -1.8166487295621730e-01 -3.0610328442669412e+00
103 1.0073867042546913e+00 7.3316325386946546e-01 -2.3823465620110687e-01
50 -5.1909165170711491e-01 -4.4577143795411417e-01 4.1644222109701035e-01
52 -1.2303703053472054e-01 9.2608263805494262e-01 -8.8735769696188693e-01
44 6.5303042561124747e-01 2.7726505956747677e-01 -1.4594440760429899e+00
45 -2.8588846716784022e-01 8.3807141745339808e-01 -2.8771353473050792e-01
46 -1.0118621426394864e-01 -2.7144585680781197e-01 -4.0890736207388878e-01
39 -3.5923504904308812e-01 -5.2593880410093230e-01 -1.0493260637627022e-01
48 -1.5211885517111232e+00 -7.0151367136552778e-01 -2.1506129424033646e-01
99 -4.0318358461648024e-01 -2.8898408076022103e-01 -1.8722917542936532e-01
55 -3.6843689084807152e-01 -1.7655611930101005e+00 -1.2666207968468373e+00
102 -8.5935784465251253e-01 -1.5884688593451132e-01 -1.9134562075302901e+00
104 4.6233859910607439e-02 1.4833275737894129e+00 8.0368935519728069e-02
122 -6.2263220624204219e-01 1.4583326580450129e+00 -6.0114120672677651e-01
82 1.6212420960092566e+00 -1.0328350811406897e+00 4.2091857880321298e-01
51 -1.4513742389277500e+00 4.5991381270108789e-01 -6.8593216406107260e-01
100 2.1339009805244341e-01 3.2639163865178711e-01 4.5638178326401246e-01
85 -6.3095812940003926e-01 1.7536930843874960e+00 1.3981255183402336e-01
84 2.7614792709877134e-01 1.7268084567085062e-02 8.4634217162406156e-01
86 5.1144040109726085e-01 1.0496920266512384e+00 2.9296643653538124e+00
83 -6.5688690704785635e-01 1.9772743815032318e-01 1.0428003461383897e+00
40 -1.0555898675331297e+00 -4.2749440082647522e-01 -5.6669345830198836e-01
54 6.4573630112994196e-01 -1.0275851352598480e+00 1.8086513227055907e+00
96 8.9691590347372396e-01 3.2324735951669031e-01 -7.2100670328140537e-01
97 -2.9166969892585654e-01 -8.2550132705198273e-02 3.3584021300539502e-01
125 1.0053490574978829e+00 8.5744697013810744e-01 1.4862667590091352e+00
135 -1.5006718213640511e+00 -3.1662065515692445e-01 -2.1611982150017672e-01
77 -1.3848968599467076e-02 5.1114723568574016e-01 1.9247350184085039e+00
20 -8.1571100073708458e-01 -4.5638506846861931e-01 3.3105824477232837e-01
133 1.7167529826285941e+00 -6.8709863458252940e-01 1.0986513598438494e+00
136 -1.5503129950922723e+00 1.4360100755591240e-01 -2.0273914210758863e+00
16 -6.3890414671618601e-01 -3.4111869857779575e-01 -9.6418310364498938e-01
21 -1.3864414669205178e+00 1.7528361999314712e+00 -5.0123019304811223e-01
17 -1.0018397921908095e+00 1.1713108256034439e+00 1.1235140681503584e+00
137 -1.0202762223415371e+00 1.4320360486921588e+00 9.1194674978173351e-02
18 -1.6401399016931550e+00 4.7729290065560737e-01 -9.9194878242438678e-01
134 -7.1228962224977499e-01 7.4489545695885895e-01 -1.4684390201234387e+00
19 -1.0444838183036722e+00 -6.6673157640731728e-01 6.7188343815238305e-02
78 2.4465519539969344e-01 6.8576925496965235e-01 2.9888938751531813e-01
23 -1.1579011334600139e-01 -1.6369453349214054e+00 -1.6943344050977756e+00
123 1.3265392091857348e-01 -2.3881512102032598e+00 -5.4832716562118100e-01
138 8.5129535155520819e-01 -1.6080527366271211e+00 -1.4686033521981463e+00
12 -1.1193833949101433e+00 4.0665468001030158e-01 -5.2330427081121858e-02
156 -7.2463652350011687e-01 -2.6755136887372521e-01 -1.2116871003515370e+00
28 4.9181489384333754e-01 -3.9209589856225663e-02 6.6650569478732702e-01
95 6.2852568468380787e-01 1.4061758244276978e+00 8.8058891673759287e-01
158 -3.2816083553423525e-01 2.1211362777333237e-01 5.4372117635080874e-01
150 4.0444992515980738e-01 3.1831484999510840e-01 1.4663885388013378e+00
182 5.8070426297564792e-01 3.8679813210452846e-01 -9.0708483400446949e-01
148 -2.4464830017807513e+00 -5.8642979486432500e-01 -1.3803738473667122e+00
113 -8.2084757105773987e-01 -3.1906035057779725e-02 2.8896331954365034e-01
25 -2.8334709714521222e-01 -1.2920323708747368e+00 -6.9825822637788126e-01
73 1.9665751658706176e+00 -6.7975419789033709e-02 2.8410765999582199e-01
153 -1.3829911073850201e+00 1.2786122227664962e+00 5.2550866508411687e-01
155 -1.3509876043353213e+00 8.7273326749092539e-01 -2.2595601184050382e+00
110 -5.3733455506356664e-01 -1.0463572898174722e+00 -3.1311171093579271e-01
151 7.8018464746042349e-01 5.6798069858902300e-01 -1.1444391284293214e+00
107 7.3244841502580496e-02 -2.7301154615583312e-01 4.4355126928361543e-01
29 -1.0924393704435560e+00 -2.1358940220132142e-02 1.5425567979263914e+00
26 -1.1565256481141382e+00 -4.8267558806853367e-01 5.2431990876607930e-02
89 1.5658602050430241e+00 9.5578738917486791e-02 -1.1765349918871795e+00
90 -1.8454360646741336e-01 1.3764653068533422e-01 5.5856778599273815e-01
91 5.3657205437230704e-01 7.3073480812316827e-01 1.8974695628786750e-01
108 7.5332532586539186e-02 3.8196697294310550e-01 9.3262499563577828e-01
24 -1.2900903366831649e+00 -8.7795696146767588e-01 -6.4138778130873608e-01
157 -2.7143629583642054e-02 2.2599905381936541e-02 -1.1990902040608376e-03
92 -1.0544192158959869e+00 9.6485002453659263e-01 1.0772141886320585e+00
72 1.6574409234798519e+00 6.1572856275193780e-02 -5.4406964092948085e-01
56 2.0308336337490367e+00 6.9438176786487782e-02 -4.6769442724425903e-01
71 -3.1278435732802523e-01 5.5501982590306462e-02 8.1181800189148751e-02
154 8.8600487718532872e-01 -7.1017818249281583e-01 -5.8288671225663791e-01
117 -8.6025913174529722e-01 -1.0041809861763975e+00 -1.2015107844866851e-01
116 2.6681502749732150e-01 -9.3935449138573546e-01 1.6748496853079617e+00
69 3.2273751814708862e-01 -2.9718115516060734e-01 1.0389739789643209e+00
186 2.5770767639703612e-01 -6.2858203151150804e-01 1.4632631617570457e-01
75 -6.9501407299028439e-01 6.4894994754112312e-01 5.3388545360149975e-01
93 -1.6287528198964651e+00 1.7615284129278614e+00 9.3220612507725364e-01
70 -6.8629197959010224e-01 -1.6375404123212828e-01 -2.5610169733547883e-01
15 -1.6578406199752829e+00 -1.3659132581248603e+00 -1.4263692433871198e+00
118 -2.1841180077170446e+00 1.3631409648553137e+00 -1.8430467001277790e+00
115 1.5922206653086851e-01 -1.8950060357855518e+00 6.6776617542175579e-02
152 6.3384306371043975e-01 3.2932857575911972e-01 -1.4464806760244211e+00