LAMMPS data file via write_data, version 12 Dec 2018, timestep = 20000

100 atoms
1 atom types
100 bonds
1 bond types
100 angles
1 angle types

-2.5000000000000000e+01 2.5000000000000000e+01 xlo xhi
-2.5000000000000000e+01 2.5000000000000000e+01 ylo yhi
-2.5000000000000000e+01 2.5000000000000000e+01 zlo zhi

Masses

1 1

Atoms # angle

55 1 1 -5.2952645235857210e+00 -8.0554249296721974e+00 -1.0854512067475452e+01 0 0 0
56 1 1 -4.8511579117991035e+00 -7.2154915148678924e+00 -1.0674191983144397e+01 0 0 0
54 1 1 -5.7853820039840231e+00 -7.8993582220168763e+00 -1.1681465729656177e+01 0 0 0
53 1 1 -5.0164118838877068e+00 -7.9155232335792949e+00 -1.2297421016401055e+01 0 0 0
52 1 1 -4.2915878233265072e+00 -7.3338210197103431e+00 -1.1953472313530758e+01 0 0 0
57 1 1 -4.3947285582494500e+00 -7.4494947817271715e+00 -9.9215585560248254e+00 0 0 0
58 1 1 -3.6255605538378970e+00 -7.6887290012580118e+00 -9.4167704633023224e+00 0 0 0
51 1 1 -3.8235160954357910e+00 -6.4963455977717519e+00 -1.1879764088836019e+01 0 0 0
50 1 1 -2.9144016214815025e+00 -6.3297980199887656e+00 -1.1758178798555848e+01 0 0 0
5 1 1 -4.2683898353135570e+00 -3.1032527638269150e+00 -1.1461843639161533e+01 0 0 0
59 1 1 -3.8533793696665231e+00 -7.7889646482151074e+00 -8.4811402014788158e+00 0 0 0
43 1 1 -4.9615524292085693e+00 -3.3675802116166302e+00 -9.4153627866041223e+00 0 0 0
42 1 1 -5.9216161120718764e+00 -3.3093603468587016e+00 -9.4925850982223370e+00 0 0 0
6 1 1 -4.4779184487057968e+00 -3.9755504918277609e+00 -1.1800645607086560e+01 0 0 0
7 1 1 -5.0155159290741151e+00 -3.9251762162151826e+00 -1.1040935102726765e+01 0 0 0
8 1 1 -5.6187211915532069e+00 -4.2998369162670027e+00 -1.0373943317149743e+01 0 0 0
44 1 1 -4.0833479338615959e+00 -3.4613077578091800e+00 -9.7299985128406359e+00 0 0 0
47 1 1 -3.0643503867551152e+00 -5.3374838684821180e+00 -9.8731664672510959e+00 0 0 0
48 1 1 -3.5190591921741481e+00 -6.1071663290815232e+00 -1.0202658114577332e+01 0 0 0
49 1 1 -2.7480626731518032e+00 -6.2903312966933989e+00 -1.0790314534179862e+01 0 0 0
3 1 1 -5.4983244839487755e+00 -1.7440184247234680e+00 -1.1229322142190535e+01 0 0 0
4 1 1 -5.0439123890970290e+00 -2.5354193000514886e+00 -1.1467045544013693e+01 0 0 0
61 1 1 -3.7897238246380986e+00 -6.6864938010266144e+00 -6.8591492088890416e+00 0 0 0
60 1 1 -3.9146178197009460e+00 -7.2447316166812294e+00 -7.6037069356198215e+00 0 0 0
13 1 1 -3.3563873716956425e+00 -6.1286461678282391e+00 -8.4816286668531955e+00 0 0 0
10 1 1 -4.1528302966119428e+00 -4.7943624989906048e+00 -9.6073145167547533e+00 0 0 0
11 1 1 -3.5021811946367842e+00 -5.0510490145117206e+00 -8.9077003960505490e+00 0 0 0
12 1 1 -2.6717691988058077e+00 -5.5306511295082217e+00 -8.7649728031610241e+00 0 0 0
41 1 1 -6.8579471078984833e+00 -2.9736358473975528e+00 -9.3609078590734089e+00 0 0 0
40 1 1 -7.3163997070113034e+00 -3.1221075588437643e+00 -8.5692231611656862e+00 0 0 0
9 1 1 -5.1428820987339092e+00 -4.5266560637220064e+00 -9.5381536216306610e+00 0 0 0
46 1 1 -2.5972226742106321e+00 -4.5684073299841836e+00 -1.0091523117547652e+01 0 0 0
45 1 1 -3.3365460926371848e+00 -4.0083021145076847e+00 -1.0031555515982900e+01 0 0 0
24 1 1 -4.7741039074943670e+00 -6.5708733143116032e+00 -4.1751434518511310e+00 0 0 0
62 1 1 -3.0676595987843185e+00 -6.0543663924271458e+00 -6.7211356552277826e+00 0 0 0
63 1 1 -2.2604901730013713e+00 -5.8338223377122000e+00 -6.1450305179658695e+00 0 0 0
14 1 1 -2.9280250632699749e+00 -6.5994275793592925e+00 -7.7598379657447953e+00 0 0 0
96 1 1 -5.1655952109065595e+00 -3.1626460176363462e+00 -8.3183494837550356e+00 0 0 0
39 1 1 -7.9270124918369538e+00 -3.2587594213144091e+00 -9.3098745088911414e+00 0 0 0
97 1 1 -4.9940101538974053e+00 -2.2270837233636227e+00 -8.5944009191541664e+00 0 0 0
99 1 1 -5.2769906789092529e+00 -1.6558835565590455e+00 -9.9098244771335526e+00 0 0 0
85 1 1 -5.6423027651520590e+00 -5.2132499348945434e+00 -3.6023082467511376e+00 0 0 0
90 1 1 -6.2620830427649130e+00 -6.7814130059354829e+00 -5.0697486926595516e+00 0 0 0
16 1 1 -2.2481907735997195e+00 -7.0781985062442949e+00 -6.3388723015791157e+00 0 0 0
15 1 1 -2.4706069944806632e+00 -7.3245651162847922e+00 -7.2683276263647985e+00 0 0 0
94 1 1 -5.9043612526879912e+00 -4.4216273279173706e+00 -7.0432297552430834e+00 0 0 0
93 1 1 -6.3528856224153447e+00 -5.2474340225571643e+00 -6.9315819325383918e+00 0 0 0
38 1 1 -8.3909960686992804e+00 -4.0706234493175923e+00 -9.2823384863158065e+00 0 0 0
95 1 1 -5.7789325537987208e+00 -3.8511313978569173e+00 -7.8564478960284170e+00 0 0 0
64 1 1 -1.7562209179583124e+00 -5.1740973295034172e+00 -6.5463646606925128e+00 0 0 0
98 1 1 -5.7001018578478133e+00 -2.1123654887439400e+00 -9.1918452478501411e+00 0 0 0
100 1 1 -6.0115017736108269e+00 -1.1408002988232655e+00 -1.0210276597472163e+01 0 0 0
29 1 1 -5.8792037455971879e+00 -4.6954258181455755e+00 -5.0105534643334009e+00 0 0 0
28 1 1 -5.4358706156704457e+00 -4.9376871849717521e+00 -5.7828804283638666e+00 0 0 0
77 1 1 -2.7783843570293851e+00 -7.8393727788807386e+00 -3.3980459000344139e+00 0 0 0
91 1 1 -5.9988486887309431e+00 -6.8125965543247506e+00 -6.0192842567216109e+00 0 0 0
30 1 1 -6.2549053144201601e+00 -4.1239391214346757e+00 -5.7373599914619824e+00 0 0 0
31 1 1 -7.1189981710706061e+00 -3.6521123995209748e+00 -5.6378631590024098e+00 0 0 0
78 1 1 -2.3201898121656934e+00 -7.1490674451142970e+00 -3.8036067838345451e+00 0 0 0
89 1 1 -6.5659976576823285e+00 -6.0022050307065093e+00 -4.5511322732709969e+00 0 0 0
88 1 1 -6.6276106506803680e+00 -6.1477911219658727e+00 -3.5660074641759545e+00 0 0 0
92 1 1 -6.2248468021748335e+00 -5.8598125089064963e+00 -6.1858186365445125e+00 0 0 0
19 1 1 -1.5489302956874649e+00 -5.4784230493667767e+00 -4.4368373323727202e+00 0 0 0
18 1 1 -1.6692809850815109e+00 -6.4294128561633643e+00 -4.6571549177413649e+00 0 0 0
17 1 1 -1.7118493137293267e+00 -7.0237600578752470e+00 -5.4437135308159270e+00 0 0 0
34 1 1 -8.1011633823115652e+00 -3.7579488879559992e+00 -7.0122664298172284e+00 0 0 0
33 1 1 -8.3028967932665161e+00 -3.9832582580137221e+00 -6.0994778264471803e+00 0 0 0
86 1 1 -6.4822630439248394e+00 -4.8486737195674463e+00 -4.0021369307323900e+00 0 0 0
36 1 1 -8.8235453857813475e+00 -4.0607491010333776e+00 -7.8427577057063367e+00 0 0 0
35 1 1 -8.0607487236885440e+00 -4.6206429523048360e+00 -7.5192264643892761e+00 0 0 0
65 1 1 -9.3878890140430404e-01 -5.0215619660821247e+00 -6.1090312788777217e+00 0 0 0
66 1 1 -1.6353044935013838e-01 -4.8389490392658647e+00 -5.6246698512644109e+00 0 0 0
70 1 1 -1.9702924937567301e-01 -6.9493642982514299e+00 -2.9538488562773155e+00 0 0 0
37 1 1 -8.9207248105594008e+00 -3.5513327684773710e+00 -8.6769354396610705e+00 0 0 0
27 1 1 -5.1981904234085619e+00 -5.8416924103119294e+00 -5.4845519524777604e+00 0 0 0
26 1 1 -5.2121725320124987e+00 -6.7873036357054364e+00 -5.3676246344496006e+00 0 0 0
80 1 1 -3.1377035274201410e+00 -7.0839398433044725e+00 -5.2983737071806116e+00 0 0 0
79 1 1 -2.9764998879074955e+00 -7.5049306022782707e+00 -4.4392370086174671e+00 0 0 0
76 1 1 -2.5182810261337827e+00 -8.8233445853556969e+00 -3.6094113241116612e+00 0 0 0
83 1 1 -4.0229970082299502e+00 -5.0321075000831144e+00 -4.4147835217166307e+00 0 0 0
81 1 1 -3.8103291300937308e+00 -6.8130171970444220e+00 -4.6351915767064673e+00 0 0 0
20 1 1 -2.3569473471452733e+00 -5.6396089355164829e+00 -3.9559929237391231e+00 0 0 0
22 1 1 -4.2235456695235944e+00 -5.8241981042608639e+00 -3.7503022886887538e+00 0 0 0
87 1 1 -6.5112215246801233e+00 -5.2982672180902997e+00 -3.1457934379801027e+00 0 0 0
32 1 1 -7.4182683764827928e+00 -4.4301329938259748e+00 -6.2092988503662268e+00 0 0 0
21 1 1 -3.2459125660826209e+00 -5.7295188713712353e+00 -3.7862645348058592e+00 0 0 0
2 1 1 -4.7522756292887056e+00 -1.1305709579519270e+00 -1.0870390701569661e+01 0 0 0
73 1 1 -1.3725101057640092e+00 -7.9507833890674062e+00 -2.4826678123309609e+00 0 0 0
1 1 1 -5.2964583519691972e+00 -4.5746491142973372e-01 -1.0492562970823222e+01 0 0 0
25 1 1 -4.8354435069749213e+00 -7.3462626762761758e+00 -4.7109264000769331e+00 0 0 0
75 1 1 -1.6171736598862008e+00 -9.3142229807738044e+00 -3.5773125199881175e+00 0 0 0
84 1 1 -4.7882977089275727e+00 -4.7916810304650275e+00 -3.9144644784957823e+00 0 0 0
82 1 1 -3.8642819325889826e+00 -5.8566667157438088e+00 -4.8884442615023316e+00 0 0 0
23 1 1 -4.8095632087437199e+00 -6.3817321079408353e+00 -3.1363358013409495e+00 0 0 0
74 1 1 -1.2597746606370281e+00 -8.8410993839057124e+00 -2.8238510555706022e+00 0 0 0
72 1 1 -4.1899986481133816e-01 -8.0844760342399429e+00 -2.3512901217928062e+00 0 0 0
68 1 1 -2.4012981803301855e-01 -6.1213488057862389e+00 -4.4675724968500345e+00 0 0 0
71 1 1 2.0198320668909808e-01 -7.3591440848977259e+00 -2.1910450030151907e+00 0 0 0
69 1 1 1.4420522912721045e-01 -6.6712806060121430e+00 -3.8269420671419838e+00 0 0 0
67 1 1 1.7135245166076091e-01 -5.5247257928554721e+00 -5.0786679169773077e+00 0 0 0

Velocities

55 -3.7338178596560317e-01 -8.6420526238958184e-01 5.2852917786356102e-01
56 1.8003887119114881e-01 -1.0548967493168580e+00 -1.5904346497821051e+00
54 -1.0848347407955099e+00 1.3555613577526235e+00 -2.2925461124672744e+00
53 -5.9307535411944012e-01 -9.5116075670482836e-01 -7.7456030333348691e-01
52 -1.1909312271052398e-01 2.1065767273992900e-01 5.9753428732431257e-01
57 -5.2071367512321631e-01 1.0689909369581678e+00 8.3240875974995054e-01
58 5.7893130721268471e-01 -1.3040291685313967e+00 -1.3707450881839442e-01
51 -4.9664065943241437e-01 -1.4129661828726043e+00 1.1252124650952264e+00
50 2.2453716016514308e-01 -2.0745647997237651e+00 -2.8317801458234043e-01
5 1.4944073009174441e+00 1.0287865460911143e+00 2.1547045894320671e-01
59 2.1838346313719431e-01 -1.8393640933404269e+00 1.1835568091531201e+00
43 -2.8235222268968196e-01 -1.0697502676250590e+00 2.3475985254007231e-01
42 8.1420214580611794e-01 5.5795741570688695e-01 -4.4111426985985314e-01
6 5.4765774396119593e-01 -2.2998713831262813e-01 -1.1570297732646195e+00
7 2.4366124455099586e-02 1.5402775339010790e+00 -1.3044481193807238e+00
8 2.0319441817616171e+00 -7.1885233635953294e-01 1.1169816416744764e+00
44 4.0322484651377338e-01 4.2638993982310208e-01 8.7801363084748618e-01
47 -7.6377260188859708e-01 -5.5198535774707413e-01 7.1849208004467680e-01
48 1.0686654087033436e+00 5.3808309187790226e-01 -3.3820781754345730e-01
49 -1.1100118387463411e+00 -3.3437614511061281e-01 -3.0912319518975941e+00
3 -9.3818019807670261e-01 1.2943472192651808e+00 8.0702729095855108e-01
4 8.2141426347611368e-01 -3.6131847126308769e-01 -6.6659926396548752e-01
61 9.5870343184368445e-01 -5.0698511297449955e-02 -5.9869041181472837e-01
60 7.3600828795112150e-01 -2.0138593101435394e+00 2.1183665909579419e-01
13 -1.6313308259153234e-01 1.4606437859860633e+00 -2.2742961825687649e-01
10 -9.9486040155730593e-01 -3.6260175600027544e-01 -2.3414831261879661e+00
11 -9.7878593846193740e-01 -3.1135541932003813e-01 1.1334950821653014e+00
12 9.0108625451412039e-01 8.6917550792336845e-02 7.5970277460729874e-01
41 -8.6575712502880153e-03 -1.0513072978550655e+00 -7.0929707601654901e-02
40 9.1959540968822351e-01 9.4397239953019330e-01 -6.3051455862407446e-01
9 1.2608193059896131e+00 3.8121916856306981e-01 3.4437740688093399e-01
46 -1.0310501935095655e+00 -1.2139361236095527e+00 1.7418391736679117e-01
45 -6.4603794817818860e-02 4.3234105383166460e-01 9.4793070286354797e-01
24 -3.8953906117618092e-01 9.6894638241196129e-01 1.6163493766490040e+00
62 -5.1044302555282883e-01 -3.0506024399312848e-01 -2.9112464005101524e-01
63 1.9802564004668286e+00 2.9665283401603321e-01 2.9941244366183006e-01
14 -1.3462383231527933e-01 8.4279648086475412e-01 8.4489904271280769e-01
96 3.2683061481217834e-01 -2.0141894400740075e+00 -1.0499577387140790e+00
39 7.4698150412243836e-01 4.4024386745008381e-01 -3.0881324886740148e-02
97 1.1018225717802269e-02 1.6519468449471375e+00 1.5276654210411493e+00
99 4.0163645209558968e-01 4.7925040371810518e-01 -7.5979847393221001e-01
85 -1.0829148644222060e+00 -1.1567340009040423e+00 1.0219520292301989e+00
90 4.8964216742453776e-01 1.4026065800616278e-01 9.0814850836212502e-01
16 1.1490392989324536e+00 -8.0028727686939705e-01 8.4404556574590139e-01
15 -9.8715221856447388e-01 -3.8460377072956731e-01 -1.8563931871865598e+00
94 9.6459945478449893e-01 2.3603630571544312e-01 5.5420361812452179e-01
93 -1.7315158346248529e+00 5.8764169215955220e-01 2.4666795971822884e-02
38 -4.2559075574818223e-01 -2.4621320943220062e+00 -5.9924808756965742e-01
95 4.6955571089305437e-01 6.8226859588052347e-01 1.0673662567762363e+00
64 -5.1508932001491592e-01 3.6867242601861139e-02 -9.0135985575601940e-01
98 -8.7724481567536006e-01 -2.1431079753275617e-01 -1.6883994875563195e+00
100 -1.4093535306156706e+00 -1.1909297181832947e+00 -3.1729148814266667e-01
29 -1.1293358602572847e+00 -1.1499538288119525e-01 9.0258531606671091e-02
28 1.8385799830640195e-01 -1.5038011580490035e-02 -1.4986397754508669e+00
77 -4.2454606404331163e-01 -5.6461254622158297e-01 9.6102040536997291e-01
91 -1.2700090133844015e+00 1.2494130152758460e+00 1.6273782983143694e+00
30 -9.0466460222440082e-01 -4.5044335148173420e-01 -7.3102705372833476e-01
31 8.5083063024784222e-01 -1.1880118456660038e+00 6.6707996039670758e-01
78 -7.3771125981635322e-02 -9.6942073089752512e-01 1.8845539792137189e+00
89 5.8889271890006367e-01 -6.5621455147108609e-01 1.0156927314475674e+00
88 3.1688743695459914e-01 -1.3109693033928900e+00 1.5994498800079606e+00
92 -6.5146460729957179e-01 -3.4993769243386386e-01 9.8946132573481627e-01
19 1.1500598587025761e-01 9.2639869390152219e-01 -1.1351930771237248e-01
18 -1.5242308932900783e+00 -4.2074543662961872e-01 1.2936959528004668e+00
17 1.2051701864887260e-01 4.5986389832397878e-01 -1.7502930592779928e+00
34 -1.8346106229971144e+00 5.3278061330328941e-01 1.4229551012579209e-01
33 5.8928133031209851e-01 8.7454863466808336e-02 1.1249570487286635e+00
86 -5.4203130943048172e-01 -3.8808971017099086e-01 -1.5086278196173879e+00
36 3.3943164610806233e+00 -1.4401275181019388e+00 -1.4970267937018884e+00
35 -7.8421976160029827e-01 2.1232019429562635e-01 -3.3438157650957323e-01
65 8.6799191587250191e-01 4.4315963347843562e-01 -2.3507442657376996e+00
66 -2.5844830976433603e-01 -6.4220567800192052e-01 -1.2457294021656127e+00
70 1.0011182679685826e-01 -1.3176748368661781e+00 1.4654604130113988e+00
37 1.8773136661228875e+00 -1.5564538728165391e+00 -3.4903361348287032e-01
27 -5.2956005961106467e-01 1.0204657870731169e+00 5.1581621944664224e-01
26 2.5812563576108061e+00 3.7012823229970110e-01 -1.7764778239858423e+00
80 3.9308027892843357e-02 -6.0639487686248150e-01 -8.8460483895579833e-01
79 1.7133359996856499e+00 -1.2669938548804558e+00 -1.6980029535866112e+00
76 -5.0782669910281020e-01 3.4941014032840023e-01 1.2267166353196379e+00
83 1.6250264001823469e+00 -1.8588679508662336e+00 9.0535216890293779e-01
81 -2.7275290268990565e-01 -8.7888372064218290e-01 -5.9948226222462930e-01
20 -4.1412271147580698e-01 5.0554543769256854e-01 1.3468778285845955e+00
22 1.0735455613203169e+00 4.4264082724105078e-02 1.2351014228241941e+00
87 1.0171426076541092e+00 2.9578236501908313e+00 -1.3550399218788582e+00
32 1.0832238947471890e-02 5.1623174749548389e-02 5.6172333223661684e-02
21 1.8725619436430979e-01 -1.2767305773869855e+00 1.1914501301688993e+00
2 -2.0671342092441631e+00 5.3261209375254293e-01 -1.2538009055731791e+00
73 -4.0320614478708627e-01 4.0512643353504779e-01 -7.7835990748151496e-01
1 2.5741582312194444e-01 1.1209157217225190e+00 5.2947128227100593e-01
25 -5.1224912010220403e-01 -3.5007787193746587e-01 -7.7985050087424757e-01
75 6.4317868828967795e-01 -1.2322684781077324e+00 1.9704655526309733e+00
84 1.1518214018504762e+00 -1.3648948344137763e+00 1.3647807675825743e+00
82 -2.6020257059034174e-01 -2.5646543690714169e-01 1.4975332436091868e-01
23 -1.3681867286848555e+00 -6.5287506041414278e-01 9.5687409014476676e-01
74 2.2432296569755414e+00 -1.7399179965101030e+00 -2.6229109748810064e-01
72 -1.2844882681028109e+00 -8.5407753769752148e-01 -3.6678575333607838e-01
68 -6.2470048230104214e-01 1.3846548743202813e+00 1.9875687444655967e+00
71 -2.1849033995634881e-01 -6.5260522039956359e-01 -1.6948591250565245e-01
69 -9.2919982337836227e-01 -3.8384727296446508e-01 -3.4315065634668129e-01
67 1.9815100354721664e-02 7.2016942933374284e-01 3.2821734492833099e-01

Bonds

1 1 55 56
2 1 56 57
3 1 54 55
4 1 53 54
5 1 52 53
6 1 57 58
7 1 58 59
8 1 51 52
9 1 50 51
10 1 5 6
11 1 59 60
12 1 43 44
13 1 42 43
14 1 6 7
15 1 7 8
16 1 8 9
17 1 44 45
18 1 47 48
19 1 48 49
20 1 49 50
21 1 3 4
22 1 4 5
23 1 61 62
24 1 60 61
25 1 13 14
26 1 10 11
27 1 11 12
28 1 12 13
29 1 41 42
30 1 40 41
31 1 9 10
32 1 46 47
33 1 45 46
34 1 24 25
35 1 62 63
36 1 63 64
37 1 14 15
38 1 96 97
39 1 39 40
40 1 97 98
41 1 99 100
42 1 85 86
43 1 90 91
44 1 16 17
45 1 15 16
46 1 94 95
47 1 93 94
48 1 38 39
49 1 95 96
50 1 64 65
51 1 98 99
52 1 100 1
53 1 29 30
54 1 28 29
55 1 77 78
56 1 91 92
57 1 30 31
58 1 31 32
59 1 78 79
60 1 89 90
61 1 88 89
62 1 92 93
63 1 19 20
64 1 18 19
65 1 17 18
66 1 34 35
67 1 33 34
68 1 86 87
69 1 36 37
70 1 35 36
71 1 65 66
72 1 66 67
73 1 70 71
74 1 37 38
75 1 27 28
76 1 26 27
77 1 80 81
78 1 79 80
79 1 76 77
80 1 83 84
81 1 81 82
82 1 20 21
83 1 22 23
84 1 87 88
85 1 32 33
86 1 21 22
87 1 2 3
88 1 73 74
89 1 1 2
90 1 25 26
91 1 75 76
92 1 84 85
93 1 82 83
94 1 23 24
95 1 74 75
96 1 72 73
97 1 68 69
98 1 71 72
99 1 69 70
100 1 67 68

Angles

1 1 54 55 56
2 1 55 56 57
3 1 53 54 55
4 1 52 53 54
5 1 51 52 53
6 1 56 57 58
7 1 57 58 59
8 1 50 51 52
9 1 49 50 51
10 1 4 5 6
11 1 58 59 60
12 1 42 43 44
13 1 41 42 43
14 1 5 6 7
15 1 6 7 8
16 1 7 8 9
17 1 43 44 45
18 1 46 47 48
19 1 47 48 49
20 1 48 49 50
21 1 2 3 4
22 1 3 4 5
23 1 60 61 62
24 1 59 60 61
25 1 12 13 14
26 1 9 10 11
27 1 10 11 12
28 1 11 12 13
29 1 40 41 42
30 1 39 40 41
31 1 8 9 10
32 1 45 46 47
33 1 44 45 46
34 1 23 24 25
35 1 61 62 63
36 1 62 63 64
37 1 13 14 15
38 1 95 96 97
39 1 38 39 40
40 1 96 97 98
41 1 98 99 100
42 1 84 85 86
43 1 89 90 91
44 1 15 16 17
45 1 14 15 16
46 1 93 94 95
47 1 92 93 94
48 1 37 38 39
49 1 94 95 96
50 1 63 64 65
51 1 97 98 99
52 1 99 100 1
53 1 28 29 30
54 1 27 28 29
55 1 76 77 78
56 1 90 91 92
57 1 29 30 31
58 1 30 31 32
59 1 77 78 79
60 1 88 89 90
61 1 87 88 89
62 1 91 92 93
63 1 18 19 20
64 1 17 18 19
65 1 16 17 18
66 1 33 34 35
67 1 32 33 34
68 1 85 86 87
69 1 35 36 37
70 1 34 35 36
71 1 64 65 66
72 1 65 66 67
73 1 69 70 71
74 1 36 37 38
75 1 26 27 28
76 1 25 26 27
77 1 79 80 81
78 1 78 79 80
79 1 75 76 77
80 1 82 83 84
81 1 80 81 82
82 1 19 20 21
83 1 21 22 23
84 1 86 87 88
85 1 31 32 33
86 1 20 21 22
87 1 1 2 3
88 1 72 73 74
89 1 100 1 2
90 1 24 25 26
91 1 74 75 76
92 1 83 84 85
93 1 81 82 83
94 1 22 23 24
95 1 73 74 75
96 1 71 72 73
97 1 67 68 69
98 1 70 71 72
99 1 68 69 70
100 1 66 67 68
