LAMMPS data file via write_data, version 12 Dec 2018, timestep = 20000

200 atoms
1 atom types
200 bonds
1 bond types
200 angles
1 angle types

-3.5000000000000000e+01 3.5000000000000000e+01 xlo xhi
-3.5000000000000000e+01 3.5000000000000000e+01 ylo yhi
-3.5000000000000000e+01 3.5000000000000000e+01 zlo zhi

Masses

1 1

Atoms # angle

26 1 1 -6.7894328069889278e+00 -5.2974194363034224e+00 -5.6238797959563955e+00 0 0 0
28 1 1 -5.5823022846393657e+00 -6.2281458000236327e+00 -6.5536194271741159e+00 0 0 0
27 1 1 -6.0048538380923890e+00 -5.8668744770517502e+00 -5.7280417401396670e+00 0 0 0
29 1 1 -4.9256612174510650e+00 -5.7308413817106523e+00 -7.0073993043748892e+00 0 0 0
117 1 1 -4.9038528131909711e+00 -4.2025057002931128e+00 -6.8065738971013190e-01 0 0 0
21 1 1 -9.4554933161834782e+00 -5.7515217834972452e+00 -3.0619808569855080e+00 0 0 0
20 1 1 -8.8312334352688708e+00 -5.0364443736904363e+00 -3.1026028923327473e+00 0 0 0
22 1 1 -8.5804774319604142e+00 -6.1616177982255840e+00 -3.3350363724624943e+00 0 0 0
24 1 1 -7.4034925312891646e+00 -5.6271068085274969e+00 -3.9292127161412163e+00 0 0 0
25 1 1 -7.2444903528953910e+00 -5.5673627904269729e+00 -4.8463394099348722e+00 0 0 0
31 1 1 -4.2772993751999824e+00 -5.2261695578814447e+00 -6.1369372473234387e+00 0 0 0
23 1 1 -7.8458886493662057e+00 -5.5946957201230187e+00 -3.1017978486363349e+00 0 0 0
33 1 1 -4.5791566357042361e+00 -4.3964854368971586e+00 -4.7784172157736986e+00 0 0 0
32 1 1 -3.8925880510048954e+00 -4.9010093255787375e+00 -5.2429858707361561e+00 0 0 0
30 1 1 -4.1185055472142480e+00 -5.2936382809883300e+00 -7.0875586853890313e+00 0 0 0
35 1 1 -3.3484020528404175e+00 -3.5663168397168645e+00 -5.1420900681880006e+00 0 0 0
36 1 1 -2.5544986653395148e+00 -3.4284734545512316e+00 -4.6136201255818516e+00 0 0 0
112 1 1 -8.0504718132225932e+00 -2.7310803107148889e+00 -1.7137857862592580e+00 0 0 0
19 1 1 -8.8076739116749199e+00 -4.0528948118090353e+00 -3.4812841975559277e+00 0 0 0
34 1 1 -4.2539932831728500e+00 -3.7142827480784950e+00 -5.4020344874621049e+00 0 0 0
13 1 1 -1.0968999956752359e+01 -4.3117025831401321e+00 -8.7052170619733094e-01 0 0 0
114 1 1 -6.6529621282790972e+00 -2.6212846263676308e+00 -1.9058135121447863e+00 0 0 0
37 1 1 -2.2796069157106800e+00 -4.0258047360190714e+00 -3.8806765461590276e+00 0 0 0
38 1 1 -2.9052428476992582e+00 -3.7031350383209372e+00 -3.2446247368363217e+00 0 0 0
11 1 1 -9.2457382563072912e+00 -4.0393803431981459e+00 -2.6201174697571827e-01 0 0 0
113 1 1 -7.2643589323632787e+00 -2.4425508946119701e+00 -1.2177599230961904e+00 0 0 0
18 1 1 -9.4985245353988255e+00 -4.0181249557328682e+00 -4.0757274860737400e+00 0 0 0
17 1 1 -1.0232304518743987e+01 -4.4290129596774408e+00 -3.5474912673518051e+00 0 0 0
16 1 1 -1.0943389319478165e+01 -3.7639191885592469e+00 -3.5829485889986530e+00 0 0 0
14 1 1 -1.0946067845720394e+01 -4.4116207286571196e+00 -1.8337746616828845e+00 0 0 0
116 1 1 -5.4185819319042050e+00 -3.9083750983973276e+00 -1.4238307851203471e+00 0 0 0
110 1 1 -8.9199905321583586e+00 -1.8228977487073881e+00 -2.3989837342210749e+00 0 0 0
118 1 1 -4.0747114393491737e+00 -4.7067128406714209e+00 -4.0265265706258274e-01 0 0 0
15 1 1 -1.0966401310703480e+01 -3.7584716525239421e+00 -2.5856060724911076e+00 0 0 0
115 1 1 -6.0262858216751294e+00 -3.0925801459041597e+00 -1.3590367786886763e+00 0 0 0
39 1 1 -3.3664288661702839e+00 -3.4714182216165028e+00 -2.4021836946082162e+00 0 0 0
40 1 1 -3.3384615806690108e+00 -2.9650164718647236e+00 -1.5726588755426170e+00 0 0 0
111 1 1 -8.1325763409330705e+00 -1.7465176231424722e+00 -1.8785456588549414e+00 0 0 0
109 1 1 -8.7895332136158064e+00 -8.5728534511942922e-01 -2.2044713245416214e+00 0 0 0
42 1 1 -4.0045433611845853e+00 -2.5200344295934740e+00 -9.7969144836331942e-02 0 0 0
12 1 1 -1.0021499923575869e+01 -4.2811680115403972e+00 -7.3072050805588262e-01 0 0 0
41 1 1 -3.8804917364774463e+00 -3.2020265557103160e+00 -7.9992111681680267e-01 0 0 0
58 1 1 -5.8764567342444556e+00 -1.0793878691993930e+00 8.2120187118512877e+00 0 0 0
10 1 1 -9.2616763421937112e+00 -3.9006648771065140e+00 7.3081548970853116e-01 0 0 0
180 1 1 -7.5677098376405350e-01 -7.6105822429940362e-01 6.8876081850373296e+00 0 0 0
43 1 1 -4.3799200029835141e+00 -2.6299898907832313e+00 7.6514073361316148e-01 0 0 0
120 1 1 -3.9183032158849187e+00 -5.1295424640555263e+00 8.8534189211827363e-01 0 0 0
8 1 1 -8.3360925763878679e+00 -2.5581384829607448e+00 1.0948104261046430e+00 0 0 0
44 1 1 -5.3190338505690500e+00 -2.9102336897700463e+00 1.0579557679067588e+00 0 0 0
6 1 1 -7.7920660282570013e+00 -1.4038827121689161e+00 4.8237745285749861e-01 0 0 0
56 1 1 -5.8786425901780532e+00 -1.9905836688744174e+00 7.2449776959776298e+00 0 0 0
92 1 1 -6.2555111967520203e+00 -6.2843751847704876e-01 4.0180563218871654e+00 0 0 0
87 1 1 -4.2247595145823977e+00 -1.0523990863571051e+00 6.3689695474013313e+00 0 0 0
84 1 1 -2.3230453660769323e+00 -3.0263816549772432e-01 6.5604075563118869e+00 0 0 0
88 1 1 -4.8516275623742544e+00 -3.4625099838096574e-01 6.0073066351792805e+00 0 0 0
86 1 1 -4.0174087039563000e+00 -9.2964006550128975e-01 7.2860967562237882e+00 0 0 0
122 1 1 -3.8937535356841444e+00 -3.3702660917439946e+00 1.7655559191993215e+00 0 0 0
45 1 1 -5.5558362938793069e+00 -3.5441438286396196e+00 1.7502635153579094e+00 0 0 0
85 1 1 -3.1309173060230906e+00 -9.2166948536700466e-01 6.8969523753510176e+00 0 0 0
55 1 1 -6.8567147960735175e+00 -2.0296423949566917e+00 7.0249717067867437e+00 0 0 0
121 1 1 -3.8994257918473649e+00 -4.2493771013445691e+00 1.3407374692783058e+00 0 0 0
9 1 1 -9.1726580584157418e+00 -2.9980933350623586e+00 1.0032300902757281e+00 0 0 0
123 1 1 -4.0695295357448664e+00 -2.4424547247059651e+00 1.7853046183238892e+00 0 0 0
124 1 1 -3.1794610751435193e+00 -2.4316694820561335e+00 1.9565481146970320e+00 0 0 0
46 1 1 -5.4523759827419855e+00 -3.4301259810346925e+00 2.6917765763340178e+00 0 0 0
119 1 1 -3.5971778359429649e+00 -5.4695573596962888e+00 9.4652363913929602e-02 0 0 0
125 1 1 -3.0794303366836102e+00 -2.2921714042662411e+00 2.9303236504771473e+00 0 0 0
126 1 1 -2.2420204483893946e+00 -2.0077398637721409e+00 2.6237008803617496e+00 0 0 0
47 1 1 -5.5677834915910820e+00 -3.4647592284400970e+00 3.5897693071605161e+00 0 0 0
48 1 1 -6.0197684591805505e+00 -3.3806997858591061e+00 4.4716941917867166e+00 0 0 0
127 1 1 -2.3021077483720078e+00 -1.1287051285003282e+00 2.2287237512766040e+00 0 0 0
128 1 1 -2.0729949574841013e+00 -2.8963249858570012e-01 1.9478700152449415e+00 0 0 0
3 1 1 -5.9235803357570651e+00 -7.7288703405274406e-01 2.2583706372311543e-01 0 0 0
57 1 1 -5.1962473229194011e+00 -1.6682574982027492e+00 7.8299144921976698e+00 0 0 0
89 1 1 -4.8663344742401682e+00 -1.9232432018112949e-01 5.0915620646713968e+00 0 0 0
51 1 1 -5.8339949943114382e+00 -1.6856463997456961e+00 5.3983853099662227e+00 0 0 0
50 1 1 -6.1285187763344124e+00 -2.6733828888382476e+00 5.4900369457959535e+00 0 0 0
49 1 1 -6.6795065425050995e+00 -3.4771540370709948e+00 5.1574613314769717e+00 0 0 0
52 1 1 -6.6175593078842683e+00 -1.1499961008665776e+00 5.5018926265586900e+00 0 0 0
7 1 1 -7.9548316634280258e+00 -2.3694511126283588e+00 2.3696307385957385e-01 0 0 0
54 1 1 -7.4204497199942070e+00 -1.2878978724598416e+00 6.7474785103369186e+00 0 0 0
53 1 1 -7.5027276397700273e+00 -1.2736405904578485e+00 5.7066439412261749e+00 0 0 0
5 1 1 -6.8126485734749558e+00 -1.3158596387790336e+00 6.7751193273040777e-01 0 0 0
2 1 1 -5.2124267263837680e+00 -2.7569757394846423e-01 6.5089905957134842e-01 0 0 0
91 1 1 -5.8616581128586622e+00 -1.3795191003349577e-01 4.7970814456116706e+00 0 0 0
179 1 1 -8.9319474557034845e-02 -1.1439867897364566e+00 7.5304044443669733e+00 0 0 0
59 1 1 -6.2735930350275559e+00 -1.9005197434612506e-01 8.2413913949502167e+00 0 0 0
4 1 1 -6.6834169155583307e+00 -3.4311397455019627e-01 5.7837536782358057e-01 0 0 0
164 1 1 -1.2304912858882600e+00 -1.2932393858340879e-01 8.5161472087458034e-01 0 0 0
100 1 1 -5.9945292243155617e+00 2.3481767974579562e+00 -1.0462190185402687e+00 0 0 0
104 1 1 -7.1328988176106156e+00 9.1988937028439854e-01 -1.2344477053557243e+00 0 0 0
102 1 1 -5.7364585824070247e+00 6.8939076000822608e-01 -9.2964954325428839e-01 0 0 0
103 1 1 -6.3293577813895867e+00 6.3296064970671273e-01 -1.6910800814928977e+00 0 0 0
106 1 1 -7.8511070489701931e+00 1.0556976385959975e+00 -1.9207729470201156e+00 0 0 0
105 1 1 -7.9083383507803422e+00 1.4640756696375516e+00 -1.0584736822011303e+00 0 0 0
101 1 1 -6.2455015450653590e+00 1.5059721436739457e+00 -7.4760025964688825e-01 0 0 0
99 1 1 -6.3616886907664369e+00 2.9596183122062536e+00 -3.8844738906784243e-01 0 0 0
107 1 1 -8.6989534343493276e+00 7.7134829972641805e-01 -2.2302779156055048e+00 0 0 0
108 1 1 -9.2612124452281943e+00 1.0491220782574584e-02 -2.2262522905994349e+00 0 0 0
162 1 1 -1.6390659995752528e+00 9.9775705292898109e-01 -9.7658011452809959e-02 0 0 0
130 1 1 -1.3278555605030933e+00 8.1506548962447500e-01 3.1589498356457431e+00 0 0 0
157 1 1 -3.7576858315251309e+00 1.0366046556783439e+00 3.2999336940301820e+00 0 0 0
156 1 1 -4.1601135994196419e+00 9.7369492163834914e-01 4.2248247525330092e+00 0 0 0
197 1 1 -4.4815262276161398e+00 2.1411193501973300e+00 2.5066252161418681e+00 0 0 0
64 1 1 -4.2040079834199968e+00 2.2758481223689819e+00 9.1134436292734726e+00 0 0 0
155 1 1 -4.5848026990248254e+00 2.6667626462671695e-01 3.7436720979006410e+00 0 0 0
151 1 1 -5.7779305595475083e+00 2.3574747298495642e+00 4.6313388134627189e+00 0 0 0
152 1 1 -5.5162451422524024e+00 1.5338301279923967e+00 4.9349456561538450e+00 0 0 0
153 1 1 -5.2017282824739857e+00 1.4623684163231099e+00 3.9978297839589687e+00 0 0 0
195 1 1 -4.8065008640529623e+00 3.1435329399880483e+00 3.2427216571979285e+00 0 0 0
154 1 1 -5.4752859413732473e+00 5.2032028177884648e-01 4.1246227509459388e+00 0 0 0
196 1 1 -4.8028348612612817e+00 3.0268075351723200e+00 2.3084415296563945e+00 0 0 0
81 1 1 -1.8840523564870535e+00 2.1998217192009286e+00 5.7616999221545413e+00 0 0 0
65 1 1 -3.2888778702781782e+00 2.2130032827024837e+00 9.4664557449612925e+00 0 0 0
150 1 1 -5.5441107869363870e+00 3.0094349261208921e+00 4.0271267454392756e+00 0 0 0
71 1 1 -3.2547927883531513e-01 3.6015660665959150e+00 9.6892609112494785e+00 0 0 0
194 1 1 -4.0086980007511794e+00 2.7534419580059191e+00 3.5796957290970535e+00 0 0 0
193 1 1 -3.5245049464548099e+00 2.5815588471538318e+00 4.4168339171490425e+00 0 0 0
70 1 1 -3.3317573627237689e-02 2.9919880655554665e+00 1.0377870364242098e+01 0 0 0
69 1 1 -9.7677165431977764e-01 2.8122903451227286e+00 1.0687955902007980e+01 0 0 0
77 1 1 -3.4366660174520741e-01 2.5484299219941127e+00 6.9525264288552355e+00 0 0 0
149 1 1 -5.4691473707880478e+00 4.0021810555337627e+00 3.9612562482082891e+00 0 0 0
97 1 1 -6.4856618355606299e+00 1.8465261426691808e+00 7.8551992741288601e-01 0 0 0
199 1 1 -5.3865033871282169e+00 4.7488784979701471e-01 2.4566194575193934e+00 0 0 0
133 1 1 -1.7528290817010017e+00 3.1379120017480515e+00 4.6212808028811274e+00 0 0 0
134 1 1 -7.8413470066425517e-01 2.9439570949764371e+00 4.4167865059902622e+00 0 0 0
148 1 1 -5.3922029248543444e+00 3.6614179608197603e+00 4.8096375480430940e+00 0 0 0
192 1 1 -2.9438579266684046e+00 1.7613488157393615e+00 4.6706598847615659e+00 0 0 0
135 1 1 -7.5442958310919594e-01 3.8649872196143864e+00 4.2242823490825732e+00 0 0 0
136 1 1 -1.4386892099360149e+00 4.5162272787914741e+00 4.3732504325869677e+00 0 0 0
146 1 1 -5.5933265074938729e+00 5.0698674363409344e+00 5.5448708856385442e+00 0 0 0
145 1 1 -4.7771981621894595e+00 5.5108444779082051e+00 5.9682713661132798e+00 0 0 0
137 1 1 -2.2466857798593716e+00 4.0202531625225575e+00 4.1920575639552640e+00 0 0 0
143 1 1 -4.1456155676355877e+00 5.6089659842714390e+00 7.2333581188993321e+00 0 0 0
138 1 1 -3.0210813751187722e+00 4.0481201310907595e+00 4.7384757048644692e+00 0 0 0
142 1 1 -3.1355585904195014e+00 5.7841054397257334e+00 7.3673496373355327e+00 0 0 0
141 1 1 -2.9728435178926529e+00 5.6104012114583908e+00 6.3993523106150638e+00 0 0 0
79 1 1 -9.3529759439378202e-01 3.4600678863898606e+00 5.9181061146835496e+00 0 0 0
200 1 1 -4.4245451737909960e+00 3.7397461996879483e-01 2.2018042579699366e+00 0 0 0
74 1 1 -1.0014847144843526e+00 3.6378623978181577e+00 8.7902262085453078e+00 0 0 0
186 1 1 -2.8556251137534829e+00 1.3908490569645657e+00 7.6807585236553830e+00 0 0 0
147 1 1 -4.9583560417933406e+00 4.4368705321400004e+00 5.2274058010182634e+00 0 0 0
191 1 1 -3.0327666251034571e+00 8.0660738151576150e-01 4.8421850939929447e+00 0 0 0
190 1 1 -3.1933981467582875e+00 1.2853525698731194e+00 5.6656737872013716e+00 0 0 0
187 1 1 -3.7279469205608442e+00 1.5508773252880603e+00 7.2032967540923973e+00 0 0 0
144 1 1 -5.0776021140202436e+00 5.5935650336532303e+00 6.9410480105090988e+00 0 0 0
139 1 1 -2.3699415158605093e+00 4.0992486478514385e+00 5.4083475438358839e+00 0 0 0
140 1 1 -2.7871641413970325e+00 4.7816391095302979e+00 5.9312332717309637e+00 0 0 0
83 1 1 -1.9520126052691931e+00 5.5730014072541501e-01 6.2786488431693543e+00 0 0 0
82 1 1 -2.2796573383968299e+00 1.4814349302937990e+00 6.2982387457325943e+00 0 0 0
185 1 1 -2.2994017101992532e+00 1.9632421579993167e+00 8.2201981905618826e+00 0 0 0
189 1 1 -4.1113739007317678e+00 1.3097248056504673e+00 5.9575648030280659e+00 0 0 0
188 1 1 -4.6376693276672940e+00 1.4603238072485230e+00 6.7444805544199067e+00 0 0 0
76 1 1 -2.9232237910221809e-01 3.1498315986417618e+00 7.7162037095462894e+00 0 0 0
75 1 1 -7.7820080723779750e-01 4.0371839333563218e+00 7.9009295876763890e+00 0 0 0
129 1 1 -1.8305938266977919e+00 5.6121702046191158e-01 2.3614218465389438e+00 0 0 0
72 1 1 -1.7310934926959773e-01 4.5750866488956996e+00 9.8476500786427739e+00 0 0 0
60 1 1 -5.7324408611241013e+00 6.0887835477245789e-01 8.3766366205220280e+00 0 0 0
67 1 1 -1.9685913125612209e+00 2.0518993782321573e+00 1.0427900508367657e+01 0 0 0
165 1 1 -3.1796969226060706e-01 2.6662677172814347e-01 8.9979210926265640e-01 0 0 0
132 1 1 -1.8558250934333764e+00 2.5858395536647567e+00 3.8383045175417050e+00 0 0 0
68 1 1 -1.0137743421571217e+00 1.9639264373412610e+00 1.0322399551493636e+01 0 0 0
61 1 1 -5.1866856472749916e+00 1.4298591811546750e+00 8.1796926395972278e+00 0 0 0
63 1 1 -4.0487167918923319e+00 1.3372828680078797e+00 9.3088138756797925e+00 0 0 0
62 1 1 -4.2258971458202783e+00 1.2230348303645884e+00 8.3907638403400195e+00 0 0 0
66 1 1 -2.8814705673790999e+00 2.4957551392773052e+00 1.0341247993116587e+01 0 0 0
198 1 1 -5.1361993552592926e+00 1.4538065609742286e+00 2.5587427307511161e+00 0 0 0
78 1 1 -3.6578976138087099e-01 3.4560328914581970e+00 6.7176679663806134e+00 0 0 0
98 1 1 -6.9265838321006585e+00 2.5020565139797535e+00 1.9278937759716896e-01 0 0 0
158 1 1 -3.3659192483721627e+00 1.5180787467064760e+00 2.5084703980135639e+00 0 0 0
96 1 1 -7.2133754555217227e+00 1.3546767184154418e+00 1.1722694151133319e+00 0 0 0
90 1 1 -5.4461233080266203e+00 5.8120441365185183e-01 5.3160403664198226e+00 0 0 0
131 1 1 -1.7661026708562915e+00 1.7512514803545867e+00 3.2876964463178671e+00 0 0 0
160 1 1 -2.2026687412371539e+00 1.3972867259336830e+00 1.2851631124296736e+00 0 0 0
80 1 1 -1.7161162395468101e+00 2.9721003039552651e+00 6.2850624079149133e+00 0 0 0
95 1 1 -6.9162390140441685e+00 4.9333199951617057e-01 1.6023046432917520e+00 0 0 0
94 1 1 -6.5845194530496176e+00 1.8899086236492901e-01 2.4581657393435385e+00 0 0 0
159 1 1 -2.8279251503655569e+00 9.8177049599480715e-01 1.8278043781952960e+00 0 0 0
183 1 1 -1.5842101152950301e+00 8.9168790602921788e-01 8.6113253985424851e+00 0 0 0
182 1 1 -9.5011750161658060e-01 3.0179117494559865e-01 8.2723706880970607e+00 0 0 0
184 1 1 -1.4598793776990313e+00 1.8080917389973894e+00 8.6351733118492398e+00 0 0 0
1 1 1 -4.7960805976857497e+00 2.2778642529545118e-01 1.3780015461818318e+00 0 0 0
73 1 1 -9.7412171666190217e-01 4.4213564540838730e+00 9.3309777508037204e+00 0 0 0
161 1 1 -1.9982271491120562e+00 7.0739706369060473e-01 7.5081454281667881e-01 0 0 0
181 1 1 -8.8925367184160420e-01 1.7990425886593683e-01 7.2905108576504229e+00 0 0 0
93 1 1 -6.2313313157099524e+00 8.1314799938551396e-02 3.3045919915986501e+00 0 0 0
163 1 1 -9.2338815979162836e-01 3.9381011144408523e-01 1.0844034283357078e-02 0 0 0
175 1 1 1.1364046690378407e+00 -1.2699195385322979e+00 5.3292811577434316e+00 0 0 0
172 1 1 1.7738539394095849e+00 -2.4550899345813326e-01 3.3540893038617039e+00 0 0 0
167 1 1 2.5594494756560204e-01 -4.6858085559245866e-01 2.1016514344780486e+00 0 0 0
166 1 1 2.6376053340775951e-01 -4.6214497857738768e-01 1.0930439774830292e+00 0 0 0
170 1 1 1.0068238527945905e+00 -1.0538173383869900e+00 2.4977257155684480e+00 0 0 0
174 1 1 1.3059547201616539e+00 -1.0218181246280165e+00 4.3957401726119905e+00 0 0 0
171 1 1 1.4925360424690977e+00 -1.1366971008886819e+00 3.3360266677717214e+00 0 0 0
176 1 1 1.0811948023128357e+00 -2.0082245762154765e+00 5.9995396360578139e+00 0 0 0
173 1 1 1.5462839204675760e+00 -7.6360247067948972e-02 4.3015749874394391e+00 0 0 0
178 1 1 9.1522570311945139e-01 -1.3996654706509135e+00 7.4327715173025473e+00 0 0 0
177 1 1 1.6822631128326431e+00 -1.6525017279331187e+00 6.8302192947815312e+00 0 0 0
169 1 1 1.3769909162030320e+00 -7.9031799917410428e-01 1.6753429382105165e+00 0 0 0
168 1 1 1.0388885681098969e+00 3.5438649175707153e-02 1.8966594963787573e+00 0 0 0

Velocities

26 -9.5730792163082745e-01 -8.7232150573381484e-01 5.6967464261546037e-02
28 -2.4874409346050605e-01 8.6497403038452370e-01 1.0230211490616907e+00
27 1.1153027449946025e+00 -2.3739316893426643e-01 -1.1024317498270535e+00
29 2.5857238273357290e+00 -7.3222571404694836e-01 -5.8687939896825181e-01
117 9.7237348840703852e-01 3.7595266615225731e-01 1.8765175382451146e-01
21 1.4244897701560459e+00 -7.0338638084667349e-01 -1.8204106162237612e+00
20 4.6903447433896961e-01 1.5309846429980478e+00 9.0503986780267232e-01
22 8.6997139228682385e-01 -1.7872614460113387e+00 -1.1804031108819268e+00
24 -6.1247272526334240e-01 -2.0481933985054064e+00 1.3333367482851930e+00
25 -1.8547005535261292e+00 -1.1328811971885098e+00 -8.6438312086525526e-01
31 -8.9836803830375744e-01 7.3358192495646291e-01 -2.2792534878996547e+00
23 1.2867060687860368e-01 9.1037128082494567e-01 -1.1173325519000934e+00
33 -8.3313293927295529e-01 1.1730365439188848e+00 3.3768955478650392e-01
32 -4.9097065879747842e-01 2.4918595069407320e-01 3.0122332456794687e-01
30 -2.5791879437669818e-01 4.2643296006917647e-01 5.4548049447692415e-01
35 1.9862554461438324e+00 -1.2890405475041677e-01 8.3805578027084815e-01
36 5.3652530889229277e-01 -3.2469018181941933e-01 -5.4845697508794378e-01
112 1.4579381935407298e-01 1.0861081753118040e+00 -2.6197150333861572e+00
19 -5.8708411886822909e-02 -8.7996819571601204e-01 1.2130106443416386e+00
34 -2.5089672873696314e+00 -5.2810855361816844e-02 7.7617449026442509e-01
13 -8.2628026910887409e-01 9.2981748789493213e-01 -8.9486532133806440e-01
114 3.7069741741854356e-01 1.4539115904536970e+00 8.8231644531802078e-01
37 -4.7444871115228116e-01 -2.6245167537369923e-01 2.3132371686125308e-02
38 3.1703531757298051e-02 3.9190493718568581e-01 -2.7308914239132043e-01
11 1.3690009719095457e+00 1.2403779694208799e+00 2.6946519698326843e-01
113 -2.2776354058616768e+00 1.1186174300468886e-01 6.3428396275207488e-01
18 -6.7200222419254896e-01 4.3172467149366101e-01 8.0007824285537787e-01
17 -1.1345019913090773e+00 -7.9699565811479156e-01 8.2623195848601838e-01
16 -1.9265700691553306e-01 -6.6528658853980560e-01 -1.6910692140447736e+00
14 3.5583788893917045e-01 -6.2571971092142142e-01 3.7994484426532782e-01
116 -7.2181560611751194e-01 -9.8307425493098100e-01 2.1976473957620396e-01
110 4.9325744288267609e-01 -1.5581966629580013e+00 5.8276090978102890e-01
118 1.5372505917358013e+00 9.0580797363016408e-01 -1.3348842955775186e-01
15 -2.1799003419619924e+00 -1.1073642921181381e+00 -1.2145861614527197e-01
115 5.5383638303998095e-01 4.1788668661841621e-01 -6.0830673533069413e-01
39 -9.6220367188213640e-01 1.0991202834755092e+00 -9.3779414841712927e-01
40 -1.1916776745933320e+00 2.9280821294398762e-01 6.4613780144553712e-01
111 -1.8925833410360544e+00 -4.1340171284000560e-01 -2.4393335292791468e-01
109 -1.0198592767075580e+00 -2.1368550910912970e-01 -5.0134426756723294e-01
42 8.2952780173341878e-01 1.1067962039395529e+00 9.2965872319127518e-01
12 1.8878388570689759e+00 -2.4751811789695886e+00 -1.2476811299472526e+00
41 -8.2737489856349011e-01 -6.1925576662039128e-01 -1.2485739788408834e-01
58 1.4508356843764714e-01 4.7436058988741467e-02 -4.0673095358203937e-01
10 3.6055809161134472e-01 1.5533822947285689e+00 -7.7231598047756256e-01
180 -4.2904310666794948e-01 3.4458980685116936e-02 -9.9500470659933737e-01
43 1.3793146900785349e+00 -6.3787906078515560e-03 -1.7888919995424590e-01
120 -9.6434958126441606e-01 1.9310214283347924e+00 1.3467104419506348e-01
8 -1.0598832228227320e+00 -5.0337646346534959e-01 -4.6315727844315335e-01
44 2.6154926604898976e-01 -3.9208818791548722e-02 -2.1925304695381664e-01
6 -1.9282841134766177e-01 -1.4173688702367506e+00 -5.9138406648491637e-01
56 -6.1476054717602469e-01 1.3556948232482438e-01 5.7679009440779394e-01
92 -3.6229892696688187e-01 3.2739724853281316e-01 -7.8172339951050018e-01
87 -1.2582448666839281e+00 -3.7338758591616161e-01 1.4801090034040199e+00
84 9.4535560894401760e-01 -1.0121219033118085e+00 1.7672445915393977e+00
88 2.0838365253872579e+00 -1.8140364392063762e-01 -1.9686757147313620e+00
86 1.1636202281741865e+00 -8.4721359585580924e-01 -8.3198989093631281e-01
122 5.0757332707706493e-01 7.6452378875929683e-01 1.8684132691603184e-03
45 1.1747139581115733e+00 -2.7962166521431517e+00 1.0926467643322118e+00
85 5.0373387750845300e-01 8.1751893268157583e-01 4.9110383821624004e-01
55 -2.6528519192059763e-01 -1.6274927549856442e+00 -1.8706699240688279e-01
121 -4.4576299812876286e-01 -9.7935226528049091e-02 1.1255674301942358e+00
9 5.6175312621024887e-01 -2.1827869102028972e+00 -3.5873481076848268e-01
123 -1.0569920593603312e+00 3.0877602902441548e-01 5.3613512122464635e-01
124 -1.1562268321557037e+00 7.8479814453483843e-01 -8.1664930889112486e-01
46 4.5957478983835576e-01 -1.8378423227860360e-01 -1.7850178026483126e+00
119 6.2313820526695818e-01 7.2970372980484666e-01 -9.0183419468548998e-01
125 -4.6593534432550321e-02 -1.0191053677498749e-01 -5.1283434207339518e-01
126 -1.3798044850576716e-01 3.4925453727692157e-01 1.2385990365959898e+00
47 -1.2810954138639952e+00 3.4480963265405395e-01 -9.4237724077107010e-01
48 -1.4333095877121274e+00 1.0049624314359011e+00 -1.8273169184156002e-01
127 5.7833654970899906e-01 -1.0387306764915176e+00 -1.5155339473883733e-01
128 1.4067328428691726e+00 -7.3261134857926069e-01 -9.3430940477441993e-02
3 -6.4885702283330038e-01 -5.3024866480868726e-01 1.0208300920976809e+00
57 1.2242867525095313e+00 -1.1975338415147763e+00 -1.3684784403988182e+00
89 -1.6120665086710970e+00 -4.2644458572453753e-01 1.8029172300005265e+00
51 -1.6970812812586955e+00 -1.3198653001609582e+00 -6.7054442279288173e-01
50 -1.3480966784070629e+00 -2.4020540872917542e-01 6.3794565585207430e-01
49 -8.3283328621499741e-01 -9.4165456867762654e-01 -3.4396699067137920e-01
52 -6.5859604229141677e-01 -1.3505983494786333e+00 1.4106183678568522e+00
7 -6.0192236961270873e-01 -4.8898520807328394e-01 3.2899214338733651e-01
54 -9.4305410552983326e-01 -7.9982590263202855e-02 3.0047863505214512e-01
53 -7.3872846501998168e-01 3.3786675743374134e-01 -3.9602445722585639e-01
5 2.5164473886906730e-01 3.1419933276998302e-01 -6.9178166487730369e-02
2 2.7515422685802371e-01 -8.2074161641296994e-01 -1.2358501916043827e+00
91 -8.9929195804570128e-01 -7.3149877796121010e-01 6.1227723339211548e-01
179 -8.0446898796097255e-01 1.0890585868792219e-01 4.8900236978515504e-02
59 -2.9062615560132660e-01 1.1355831785135184e+00 -1.2894697430010729e-01
4 3.0053319904976106e-01 4.0865867537427542e-01 1.7186837274018414e+00
164 -1.1283967694148695e+00 -8.5466893195896232e-01 -2.8401522055668948e-01
100 -5.7540588298423484e-02 5.9626891450822700e-02 1.2274705127338350e+00
104 6.2913083154476090e-01 -2.4606012935959387e-01 2.1905703836244700e-01
102 -1.0063587653231636e+00 1.0861636755887984e+00 7.8165466961234653e-01
103 3.9951012469704797e-02 2.5311815058503546e+00 1.4626218796354300e+00
106 -3.1928756393420299e-01 -7.3825207380243868e-02 -6.1809315069383464e-01
105 -2.2342654230180467e-01 -9.0592503763411436e-01 1.7012471373495981e+00
101 -1.0735383713939597e+00 -1.8787840858484723e+00 1.0758213320677494e+00
99 -8.2311276132963418e-01 -2.9690518125529969e-01 5.9460092724094205e-01
107 -4.2637027867705557e-01 2.3726335328258549e-01 -2.6315300011766490e-01
108 6.0426326957770582e-01 1.6051932362744312e+00 9.2487790362433620e-01
162 -4.5285330631354981e-01 5.0935221705078559e-01 -7.6148101064504103e-01
130 1.8830296597235294e-01 -2.5422568848727400e-01 9.3562733467385972e-02
157 1.2133791364943615e-01 9.4986122382128202e-01 5.7792550063505843e-01
156 -1.1825291067157855e+00 -1.6218067455481304e+00 -8.5318483658068811e-01
197 1.1267538344947024e-01 -1.2794172192851265e+00 3.2505638076014809e+00
64 6.9176135161459573e-01 -4.7831806016900630e-01 3.6064983967483963e-02
155 3.0763339460646821e+00 -4.8266394492044812e-01 1.4830765145543170e+00
151 -7.1821174223547435e-01 5.8536543998659052e-01 2.5113203645769522e-01
152 4.6920637477419858e-01 -1.4215662212191371e+00 6.1738007852613769e-02
153 -1.1707761375605867e+00 8.9774856120306584e-02 -1.4726696487030917e+00
195 -2.1051066101894480e+00 1.6036506995550825e-01 7.2945977603875467e-01
154 -8.2041075526459273e-01 1.0158949780683135e+00 8.7743056745742454e-01
196 -9.2731271707180740e-01 -1.3269101135035275e+00 -6.3581923066181129e-02
81 1.2767493769202489e+00 -5.3930179811729029e-01 2.0125240213560064e-01
65 -2.4134225256887598e-01 -5.4378192333110298e-01 -5.4341616141349969e-01
150 1.4957303735016771e+00 -8.4675949978333331e-02 9.3427831854112553e-01
71 -1.1072411858856386e+00 1.4696726121178201e+00 3.4125036391672059e-01
194 -1.2998805689263870e-01 -1.5181880540112573e+00 -3.0220506981222178e-01
193 2.2188474790188176e-01 -4.2674640231103694e-01 -6.8032609967695090e-01
70 -2.1193084404854412e-01 -4.7122170580568640e-01 8.1124671683269545e-01
69 7.9357237774395406e-01 -1.7327928147665256e-01 -6.7208028257302255e-01
77 -2.9712939169753788e-02 -1.3117809950423481e-01 -6.8664019311575075e-01
149 4.7177922718967308e-01 -2.3268432078197150e+00 1.1624542892841456e+00
97 6.2417223297809121e-01 -4.0831118729330551e-01 1.2224058724386055e-01
199 7.9370242654629830e-01 1.0017205284203203e+00 -1.1484647228330851e+00
133 1.2018663235062896e+00 -1.5895587978502033e+00 4.4776899807749782e-01
134 2.0887217788661934e+00 6.9306567532863672e-01 8.6742297108067490e-01
148 -5.6396820460564745e-01 -6.2543535883212431e-01 1.4324301253949918e+00
192 -8.0167906788215182e-01 -8.7079815095840518e-01 -1.4424641610799871e+00
135 1.9067259969643868e+00 4.4084307737713113e-01 -1.5770009366639268e+00
136 -9.8989828559178683e-01 -2.1985715741417238e+00 -1.5686119456893752e-01
146 -1.6214902138285131e-01 4.5055967849832279e-01 -2.3639963249206857e+00
145 9.6695670841740577e-01 -1.9452482179111358e-01 -7.9112235889313309e-01
137 7.6636126527151394e-01 2.0587782305809449e-01 -1.6690729224785497e+00
143 -7.0704369541551582e-01 1.9689802643156538e+00 1.8437598882538961e+00
138 5.2406840471437544e-01 -7.6632981425830124e-02 1.4000670506904325e+00
142 -2.1670385812101811e+00 6.8858728505564115e-01 1.0546976181536025e+00
141 -2.3187763604138496e+00 2.5444211050631915e-01 -3.6782729029966105e-01
79 -5.6413235771270231e-01 1.2671706071238868e+00 -1.2172301600434372e-02
200 -1.3637985862077445e-01 -1.2673396033191686e+00 -5.7699730895128121e-01
74 -2.6498517887739381e-01 1.3734477323009371e+00 -3.1874473492967126e-03
186 -3.0397105271991542e-01 -2.4165921595774631e-01 4.9540468741657373e-01
147 2.0965898845399686e+00 5.0980715387520026e-01 5.8758356298655601e-01
191 1.2895776444065532e+00 9.1861696848858099e-01 1.3383758825621103e-01
190 -9.2826946597047863e-02 1.0518550580598149e+00 -3.3319633750237754e-01
187 7.1239643427732136e-01 7.9150026712774801e-01 -9.8419486442145132e-01
144 1.8077268981681067e+00 3.9721710145338462e-01 1.5922519759961946e+00
139 3.9364624665708381e-01 -1.3028651528905457e+00 2.7024936357930889e+00
140 2.9356001975683306e+00 1.1919064592583644e+00 -1.5430080783103755e+00
83 -5.7564952884689458e-01 -5.0577426107996271e-01 3.3907290592498085e-02
82 -6.1187656026288084e-01 -3.0800394219472782e-01 -3.7685385911216351e-01
185 1.1884034546988527e+00 3.8816081598145542e-02 -1.1001205218816041e+00
189 7.4180671068587078e-01 4.5753230268737183e-01 8.8914707899060819e-01
188 -3.5389665133526288e-02 1.7086251679852424e-01 2.6380001544513704e-01
76 5.9378636780587113e-01 5.0845108744209624e-02 -9.6793335385928403e-01
75 -1.5732193261575025e+00 3.4668277503449618e-01 1.8945222638347556e+00
129 -3.3172733747403432e-01 -9.5353811502376107e-01 -2.0338237145820720e-01
72 4.8786853851312340e-01 7.9438278047933886e-01 -8.4733197728010745e-02
60 -7.4406143203928365e-01 8.4461254921067486e-01 -2.2489100103937654e-01
67 -3.5510805630861586e-01 1.5698560686419489e+00 5.7647866710195173e-01
165 1.8563147861283524e+00 -1.6421845030232072e+00 6.9064623530501745e-01
132 -3.8352356860948567e-02 1.1940100461668786e+00 1.9073926159386259e+00
68 3.3791036651350115e-01 -1.0296835093758429e-01 2.3237575739527139e-01
61 -2.6218395655682403e-01 -8.2423261223766742e-01 3.4578757594709886e-01
63 3.2961881732640153e-01 -4.7625717021204805e-01 -8.7949659134854175e-01
62 7.7293903453088442e-01 -5.6649904619150182e-01 3.2820932542564241e-01
66 1.0524953280869620e+00 -7.6094701179270152e-01 1.0490630653521971e-01
198 1.6468199798161198e-01 5.3184699659658929e-01 -1.1855186270948475e+00
78 7.6250565946660143e-01 -1.0568284174997715e+00 -1.4286771678629178e+00
98 3.2375297863475827e-01 1.0706116417460787e+00 -9.3513851146793370e-01
158 -1.9969540406181654e+00 5.9295845803153746e-01 1.8283854444047667e-01
96 -1.3856916896713871e+00 4.6997512137382730e-01 3.7528292026361709e-02
90 -8.8218517697828319e-02 6.6664652890160292e-01 -4.1568270098513610e-01
131 -5.9619378189742678e-01 2.4159260054744242e-01 6.3190361310881848e-01