LAMMPS data file via write_data, version 12 Dec 2018, timestep = 20000

200 atoms
1 atom types
200 bonds
1 bond types
200 angles
1 angle types

-3.5000000000000000e+01 3.5000000000000000e+01 xlo xhi
-3.5000000000000000e+01 3.5000000000000000e+01 ylo yhi
-3.5000000000000000e+01 3.5000000000000000e+01 zlo zhi

Masses

1 1

Atoms # angle

179 1 1 -9.3454862437459341e-01 -2.5757352676876009e+00 -4.1064667456551192e+00 0 0 0
178 1 1 -4.6481204286478228e-01 -1.8603153978638574e+00 -4.5835037397353018e+00 0 0 0
153 1 1 -3.3884913809741377e+00 -3.9585313723453130e+00 -1.8349955687641412e-01 0 0 0
59 1 1 -2.0203689006268370e+00 -1.2211972102473059e+00 -3.0652582486310349e+00 0 0 0
63 1 1 -1.5245133914213231e+00 -2.7399616188122189e+00 -5.0564950841828722e+00 0 0 0
32 1 1 -3.1099859987499303e+00 -1.6105368903312201e-01 -1.6400623570490114e+00 0 0 0
181 1 1 -1.0227510585511947e+00 -4.5601014488093767e+00 -4.5721419300663699e+00 0 0 0
180 1 1 -1.1282542422176947e+00 -3.6244730870126052e+00 -4.2551066798109360e+00 0 0 0
61 1 1 -2.8236634981157889e+00 -2.5378294265344232e+00 -3.8792626970206072e+00 0 0 0
193 1 1 -2.3830406069089287e+00 -5.7980701912894599e+00 -2.2690075885252001e-01 0 0 0
60 1 1 -2.0853560309580388e+00 -1.9397000308539183e+00 -3.8375404807424216e+00 0 0 0
155 1 1 -1.7999020369487710e+00 -4.8346847306006824e+00 -2.7483259270958593e-01 0 0 0
188 1 1 -4.2081409705415034e+00 -4.6717994440020600e+00 -1.3768685699759513e+00 0 0 0
187 1 1 -3.5150317741803057e+00 -3.9863956001422696e+00 -1.3742940822735210e+00 0 0 0
186 1 1 -2.9136744477425074e+00 -3.8256183539225366e+00 -2.0888988620851361e+00 0 0 0
184 1 1 -1.6570344367243701e+00 -2.9866721466599255e+00 -2.7591707701494030e+00 0 0 0
182 1 1 -9.8442227752537037e-01 -4.5104356545764777e+00 -3.6389750741998808e+00 0 0 0
185 1 1 -2.4225059000473861e+00 -3.0315052729056031e+00 -2.1754691889488287e+00 0 0 0
157 1 1 -7.2399437124300359e-01 -3.9064059489538203e+00 -1.1808978260892453e+00 0 0 0
64 1 1 -7.3598066004710072e-01 -2.8212392391657271e+00 -5.6273807869645394e+00 0 0 0
189 1 1 -4.4831672147051549e+00 -5.0586008278639776e+00 -2.2225008937346029e+00 0 0 0
183 1 1 -1.4269730698003988e+00 -3.7491137982633833e+00 -3.3384890321708038e+00 0 0 0
176 1 1 -2.6552696803829456e-01 -1.0755268126454243e+00 -5.6124989038143882e+00 0 0 0
65 1 1 -1.0017327496045049e-01 -2.9579057411364751e+00 -4.8023870801111226e+00 0 0 0
192 1 1 -3.0185163291431674e+00 -5.9643884418091790e+00 -1.0070654787732576e+00 0 0 0
191 1 1 -3.2198667835318560e+00 -5.5379956564761663e+00 -1.8410887575466388e+00 0 0 0
190 1 1 -3.6110628227797763e+00 -5.3270498413734781e+00 -2.7012768205251874e+00 0 0 0
31 1 1 -2.9782973220181850e+00 -1.8554663464330473e-01 -6.8003765521191262e-01 0 0 0
154 1 1 -2.7326101192178398e+00 -4.5890354653547378e+00 -4.6479583686564979e-01 0 0 0
62 1 1 -2.2622634397889168e+00 -3.0206023468086212e+00 -4.5239897753709544e+00 0 0 0
58 1 1 -1.5037908996934490e+00 -3.9900918014619102e-01 -3.5549051997961105e+00 0 0 0
156 1 1 -1.1590614457429487e+00 -4.0899034691025262e+00 -3.3696205151868597e-01 0 0 0
57 1 1 -1.6356538499570721e+00 -2.0087942091597247e-01 -2.6723884843980032e+00 0 0 0
195 1 1 -1.4855882607786668e+00 -6.3565879652245991e+00 -1.7470134538639510e-02 0 0 0
8 1 1 -3.7633496814519733e+00 -9.4815017718061179e-01 2.7590569441279054e+00 0 0 0
108 1 1 -7.8165599640504335e-01 -1.9209676028674266e-01 2.1894404377136980e+00 0 0 0
102 1 1 -2.9690204261325741e+00 -3.2795646905805537e-01 1.0233030437884221e+00 0 0 0
141 1 1 -3.9571546236906205e+00 -7.2929269344037992e+00 1.3980578172742040e+00 0 0 0
133 1 1 -9.7680922850279595e-01 -6.8404920603017842e+00 3.1064932654912667e+00 0 0 0
146 1 1 -6.1909955813673241e+00 -6.7189142281077414e+00 6.0137164466451609e-01 0 0 0
137 1 1 -2.1572998486576216e+00 -8.2112867136171364e+00 2.3277399443222517e+00 0 0 0
199 1 1 -1.6156472929901000e+00 -5.0677677767044038e+00 2.8353475469911573e+00 0 0 0
150 1 1 -4.8202743285440208e+00 -4.2080542725512498e+00 8.2738631747259062e-01 0 0 0
2 1 1 -2.8344142654427755e+00 -3.6876089922208819e+00 2.2469958643995480e+00 0 0 0
4 1 1 -2.3499628734017590e+00 -2.1062963135009896e+00 1.6794227349208146e+00 0 0 0
106 1 1 -1.5497774533764574e+00 -3.9008839850895255e-01 1.3854143918101511e+00 0 0 0
7 1 1 -3.6525313087268358e+00 -4.9300474084912044e-01 1.9468956327219846e+00 0 0 0
138 1 1 -2.7042081964050761e+00 -8.5266269366149885e+00 1.6447490202666022e+00 0 0 0
5 1 1 -3.2680415950405406e+00 -2.1714678381806829e+00 2.0229930118706676e+00 0 0 0
145 1 1 -6.2218686029968922e+00 -6.8412511174872996e+00 1.6468276896727954e+00 0 0 0
144 1 1 -6.1401558729480996e+00 -6.5834349425938550e+00 2.6061545815360967e+00 0 0 0
9 1 1 -3.5221790442813217e+00 -8.8450936469227437e-01 3.7063521263941466e+00 0 0 0
135 1 1 -9.6096861647772136e-01 -7.9690100041296574e+00 3.0680523232406656e+00 0 0 0
196 1 1 -1.6403159378912009e+00 -6.0572025698976768e+00 9.0964769689291669e-01 0 0 0
197 1 1 -1.6747286556594330e+00 -5.2476022595460154e+00 1.4153365305109780e+00 0 0 0
198 1 1 -1.8764341908055076e+00 -5.8534421075981742e+00 2.2058532148113428e+00 0 0 0
107 1 1 -1.2924192339059213e+00 -1.0202994706108568e+00 2.0701389737142546e+00 0 0 0
1 1 1 -2.3597985772215151e+00 -3.3988890850981384e+00 3.0590478543698563e+00 0 0 0
129 1 1 -6.6988460074695810e-01 -3.9570805254625232e+00 3.6447472627560926e+00 0 0 0
6 1 1 -3.2935163479955598e+00 -1.3404081961696508e+00 1.5412638278069375e+00 0 0 0
151 1 1 -3.9091641868224167e+00 -4.2468128815925041e+00 6.6102677240613850e-01 0 0 0
101 1 1 -3.7754007105903065e+00 -4.9363288440510483e-01 5.0957765641598973e-01 0 0 0
148 1 1 -6.3801819422784920e+00 -5.1000965839860486e+00 7.6986633602591836e-01 0 0 0
194 1 1 -2.3565087876472623e+00 -6.6409705561191483e+00 2.1914406118351265e-01 0 0 0
143 1 1 -5.3900413038396335e+00 -7.1200283753433222e+00 2.4449280823637265e+00 0 0 0
140 1 1 -3.4369079992284686e+00 -7.9524827458856793e+00 8.5728163228208276e-01 0 0 0
136 1 1 -1.8669401050919125e+00 -7.6699178213805848e+00 3.0426492425751306e+00 0 0 0
134 1 1 -5.0674219446695390e-01 -7.3973786542052720e+00 2.4351169998968554e+00 0 0 0
132 1 1 -6.2828745231968897e-01 -6.5453191973542229e+00 3.9643249328117118e+00 0 0 0
131 1 1 -3.4132103830376570e-01 -5.6592063962053061e+00 3.7118108853450904e+00 0 0 0
130 1 1 -5.0909899335200859e-01 -4.8147352389927134e+00 3.2898771546521042e+00 0 0 0
10 1 1 -3.0248619040331413e+00 -7.2208437071460574e-01 4.5217751031425752e+00 0 0 0
147 1 1 -6.7766842747421903e+00 -5.9565882797368666e+00 6.1972603088846878e-01 0 0 0
152 1 1 -3.0083017470125006e+00 -4.0126555160899056e+00 7.2879350603725490e-01 0 0 0
200 1 1 -2.1638172390839587e+00 -4.3889437022849052e+00 3.1267538908115609e+00 0 0 0
3 1 1 -2.2449662559013239e+00 -3.0441847337491255e+00 1.8687770614068309e+00 0 0 0
139 1 1 -2.5318714052374576e+00 -7.7620540199352934e+00 1.1244814107071952e+00 0 0 0
149 1 1 -5.4805895315735107e+00 -4.8896285301140088e+00 6.0676377734205511e-01 0 0 0
142 1 1 -4.6984758899392158e+00 -7.4306750893298412e+00 1.9603036398765987e+00 0 0 0
41 1 1 -3.9842140694086599e+00 2.9305504182956756e+00 -5.0249272144725552e+00 0 0 0
86 1 1 -8.0601136159945308e-01 3.9961263091429990e+00 -4.6476320071429873e+00 0 0 0
85 1 1 -6.5637032310691779e-01 3.8515537322098088e+00 -5.5306750611390649e+00 0 0 0
40 1 1 -3.2161902486926643e+00 2.3289317812986239e+00 -5.2248553318811268e+00 0 0 0
39 1 1 -2.6326508713362613e+00 1.9451305653153872e+00 -4.5830296194162150e+00 0 0 0
42 1 1 -4.4820404658810862e+00 3.6997134493970480e+00 -5.2448262386198365e+00 0 0 0
87 1 1 -1.6077475465059150e+00 3.5122181258543614e+00 -4.7155715288396580e+00 0 0 0
43 1 1 -3.6532820690396579e+00 4.1216327130664308e+00 -5.5389015295084238e+00 0 0 0
51 1 1 -4.2520738629677437e+00 2.4990266726898720e+00 -1.9554209685794330e+00 0 0 0
84 1 1 -3.4488921174823339e-01 3.1192538320401728e+00 -5.9884819468436197e+00 0 0 0
56 1 1 -1.9920412142540873e+00 6.3744042066820727e-01 -2.4387557550621426e+00 0 0 0
50 1 1 -3.7361818370075484e+00 3.3761547560803411e+00 -2.1497266055084641e+00 0 0 0
98 1 1 -5.7158501837645117e+00 6.1866252511835318e-01 -1.0872845677911438e+00 0 0 0
26 1 1 -2.0322121661325462e-01 5.7713230629333478e-01 -3.5249364675054329e-01 0 0 0
55 1 1 -2.3789384168305712e+00 1.4891488826342127e+00 -2.6283692894378947e+00 0 0 0
54 1 1 -2.3011662295199935e+00 2.4330912127320836e+00 -2.5603779209699118e+00 0 0 0
89 1 1 -3.0109545917317044e+00 3.0334809706586365e+00 -3.9264936211206227e+00 0 0 0
88 1 1 -2.1433858613045484e+00 3.3331803968944738e+00 -3.9190867782049232e+00 0 0 0
53 1 1 -3.1927132660565989e+00 2.0859728735875338e+00 -2.4327221676699748e+00 0 0 0
44 1 1 -3.5818067368176885e+00 4.9834848124420850e+00 -5.1665147841506345e+00 0 0 0
45 1 1 -3.6630271474600300e+00 5.3131265356340895e+00 -4.3222627816181109e+00 0 0 0
52 1 1 -3.6873285864244689e+00 1.7520538504485343e+00 -1.6536193440984799e+00 0 0 0
46 1 1 -4.4457694964810788e+00 4.8777864021638102e+00 -4.0286940323834974e+00 0 0 0
47 1 1 -3.8650442888156329e+00 4.7094953248516100e+00 -3.3053136447352274e+00 0 0 0
49 1 1 -2.9884040563731902e+00 3.6521853525136301e+00 -2.7586842633783015e+00 0 0 0
35 1 1 -2.6033359696902680e+00 4.8455636669062824e-01 -3.3808036887387600e+00 0 0 0
90 1 1 -3.7970493499880162e+00 3.1185620606320166e+00 -3.3267719044236514e+00 0 0 0
48 1 1 -3.0800807513051791e+00 4.1729263841774724e+00 -3.5559384740195750e+00 0 0 0
38 1 1 -1.7066426003876567e+00 2.0528551787054541e+00 -4.4521385110832741e+00 0 0 0
96 1 1 -6.1831768619919414e+00 1.5292075386549040e+00 -2.6900977242067743e+00 0 0 0
36 1 1 -2.2465829397888188e+00 6.1928189960937452e-01 -4.2417890333348325e+00 0 0 0
91 1 1 -4.5844799774121689e+00 3.6092880292873137e+00 -3.5774543485448529e+00 0 0 0
92 1 1 -5.0150189404399717e+00 3.2767644051582860e+00 -4.4273053088650309e+00 0 0 0
93 1 1 -5.9054773362937878e+00 3.3182459305665382e+00 -4.0720295325850868e+00 0 0 0
94 1 1 -5.8791145065555668e+00 2.3610506164922862e+00 -4.2514829771895659e+00 0 0 0
95 1 1 -6.2929136149695406e+00 2.2093138222037076e+00 -3.3771789184586458e+00 0 0 0
83 1 1 -4.0783187242859820e-01 2.1012199729288437e+00 -5.8684947391498401e+00 0 0 0
97 1 1 -5.9026584496435381e+00 9.9484938535254164e-01 -1.9444199104937656e+00 0 0 0
37 1 1 -1.8180567591133834e+00 1.1603643185462227e+00 -4.9129264425166683e+00 0 0 0
99 1 1 -5.1112461673693055e+00 5.3551092122155486e-01 -3.3318914198580235e-01 0 0 0
29 1 1 -2.0111594735021261e+00 8.8152865716309903e-01 -1.2178325139508082e+00 0 0 0
28 1 1 -1.3109826410185415e+00 3.5313312735166830e-01 -1.6721549491153120e+00 0 0 0
30 1 1 -2.3333510505910162e+00 4.2899297769933825e-01 -4.0192590138953027e-01 0 0 0
27 1 1 -9.5479960479142523e-01 8.5991214299200203e-01 -8.9557836252137046e-01 0 0 0
34 1 1 -3.5161197636821337e+00 2.8744976920018500e-01 -3.4260871829221475e+00 0 0 0
100 1 1 -4.2437080983194555e+00 2.0268129091656875e-01 -4.3344209485333941e-02 0 0 0
33 1 1 -3.1621394069092283e+00 6.7616205399980856e-03 -2.5496968796962363e+00 0 0 0
20 1 1 -3.1666773863834563e+00 2.2396520427003606e+00 2.1760850122876980e+00 0 0 0
19 1 1 -3.3724875265762577e+00 2.9805491698789157e+00 2.8424997956429801e+00 0 0 0
21 1 1 -2.5534821225861930e+00 1.5698040892914513e+00 1.9560506755195890e+00 0 0 0
17 1 1 -4.1173834380513545e+00 1.4221693102112152e+00 3.3891678129487302e+00 0 0 0
16 1 1 -4.2066883651620222e+00 1.1344953557238464e+00 4.2731010607593189e+00 0 0 0
11 1 1 -3.1271622582962917e+00 9.9664942602147380e-02 4.0208597576469520e+00 0 0 0
18 1 1 -3.4581569746522511e+00 2.0946501865656630e+00 3.2828081038574695e+00 0 0 0
23 1 1 -1.2167055157772539e+00 2.2400278305387800e+00 1.3798390408134027e+00 0 0 0
15 1 1 -3.8619763705699000e+00 2.0078123307613009e+00 4.2808863211187536e+00 0 0 0
104 1 1 -1.7322062250490071e+00 7.9436559438469490e-01 1.1497355434488823e+00 0 0 0
22 1 1 -1.9614611048852377e+00 1.7287388190820376e+00 1.1434753648846827e+00 0 0 0
105 1 1 -1.3902960573586682e+00 3.5875469952490323e-02 5.4795841473633611e-01 0 0 0
24 1 1 -6.3734799117777097e-01 1.8111141040907408e+00 7.2337447702834612e-01 0 0 0
14 1 1 -2.9700532947618101e+00 2.2152419659091285e+00 4.5613898007074027e+00 0 0 0
13 1 1 -2.7024087909455745e+00 1.3639299347311973e+00 4.9464922398026472e+00 0 0 0
25 1 1 -8.8462268271131683e-01 9.5375444903410611e-01 2.4820838083671568e-01 0 0 0
103 1 1 -2.5803444962682320e+00 4.5145290410721545e-01 1.5119950809194767e+00 0 0 0
12 1 1 -2.3588047306499709e+00 5.7938418502120048e-01 4.4335471413498002e+00 0 0 0
110 1 1 -3.3940513784751508e-01 9.0626006813723448e-01 1.7997543550157240e+00 0 0 0
166 1 1 2.9615025593505511e+00 -4.0154517137696768e+00 -3.0236927494735233e+00 0 0 0
66 1 1 7.1922937277546173e-01 -2.9206355015806720e+00 -4.3113082353050576e+00 0 0 0
171 1 1 2.2952131502278355e+00 -3.1908153061417371e-01 -3.9106894170375868e+00 0 0 0
160 1 1 1.3714852497674617e+00 -3.3053977999367192e+00 -1.8791100788411332e+00 0 0 0
164 1 1 3.8861038538617119e+00 -3.9216524487682372e+00 -1.4817506741080202e+00 0 0 0
67 1 1 1.5675956729643588e+00 -3.3714187329367191e+00 -4.1470258027325881e+00 0 0 0
68 1 1 1.6135967644298335e+00 -2.4667129740618412e+00 -4.5374146194342995e+00 0 0 0
162 1 1 3.0317700655458433e+00 -3.4369832105437230e+00 -1.8805973700285734e+00 0 0 0
73 1 1 1.1760561413470390e+00 -1.4355953341340860e-01 -2.8175991965419609e+00 0 0 0
170 1 1 3.2194917774168617e+00 -8.1439290950412391e-01 -3.6819909070446499e+00 0 0 0
177 1 1 2.6191639202450356e-01 -1.7335562851398687e+00 -5.1928622029591027e+00 0 0 0
161 1 1 2.1259872380021378e+00 -3.6160932017309135e+00 -2.3311771920010638e+00 0 0 0
165 1 1 3.5607524468928440e+00 -4.2868882814563047e+00 -2.3102221997873498e+00 0 0 0
158 1 1 1.0115833415701372e-01 -3.9178278981609096e+00 -1.6609740133675130e+00 0 0 0
72 1 1 1.8388870630872653e+00 -6.1884277970261170e-01 -2.3266968096597940e+00 0 0 0
163 1 1 3.0461975284889005e+00 -4.2888095326595002e+00 -1.4192930038212539e+00 0 0 0
71 1 1 2.6261899250529375e+00 -1.0515175042489051e+00 -2.6385823654450427e+00 0 0 0
69 1 1 2.0346519784179464e+00 -1.8224464698293914e+00 -3.9298587926353901e+00 0 0 0
70 1 1 1.9162285447605729e+00 -1.0896635280335896e+00 -3.2989136335345943e+00 0 0 0
168 1 1 2.9588925595300601e+00 -2.4540202262723430e+00 -3.8965525644275831e+00 0 0 0
167 1 1 2.8216513642105876e+00 -3.0020060036790901e+00 -3.1055536064704747e+00 0 0 0
169 1 1 3.3228235203963936e+00 -1.6865506816013536e+00 -3.3909490039596766e+00 0 0 0
159 1 1 7.0241080159290525e-01 -3.7579776275202716e+00 -2.3817175721281210e+00 0 0 0
172 1 1 1.6318173186797675e+00 -7.0572598611479653e-01 -4.4150798937498950e+00 0 0 0
173 1 1 1.2667821578158143e+00 -5.6683876846300918e-01 -5.3152189685154978e+00 0 0 0
175 1 1 3.3916664773946481e-01 -6.4153859061609242e-01 -4.9451937431197548e+00 0 0 0
116 1 1 2.6134249124667486e+00 -6.6189059769382474e-01 2.4436409619678572e+00 0 0 0
124 1 1 1.3594473385866950e+00 -3.3027364600787443e+00 5.1831262012867212e+00 0 0 0
125 1 1 1.3913404671864633e+00 -3.4541220656428004e+00 6.1245552685157696e+00 0 0 0
120 1 1 2.4904375408917541e+00 -2.6547039143734459e+00 4.0131943369223784e+00 0 0 0
119 1 1 3.1678009522255364e+00 -2.1548159254647832e+00 3.5839892393943198e+00 0 0 0
117 1 1 3.1828760830048650e+00 -1.3852962183140263e+00 2.7030233119861240e+00 0 0 0
118 1 1 3.4873927650159771e+00 -2.3506637255728675e+00 2.7063136571223247e+00 0 0 0
126 1 1 5.7564039311435333e-01 -3.7571606969131057e+00 5.6627006154469770e+00 0 0 0
115 1 1 1.9494056112842035e+00 -5.3196863487256418e-01 1.6724140427663774e+00 0 0 0
123 1 1 1.9379844334433560e+00 -4.1811990421702827e+00 5.2036271672681300e+00 0 0 0
121 1 1 2.1935875045038165e+00 -3.4873059847005057e+00 4.5295498985291980e+00 0 0 0
122 1 1 2.4821954135418340e+00 -3.4351773043263196e+00 5.4993539581262585e+00 0 0 0
128 1 1 1.6349128938771185e-01 -3.9376157227446713e+00 4.1900712754985436e+00 0 0 0
127 1 1 2.4260379665928969e-01 -3.2283065978880754e+00 4.8456128142477839e+00 0 0 0
78 1 1 1.4654273961314446e+00 3.4908262443445897e+00 -2.6069210513709633e+00 0 0 0
79 1 1 1.2723793197247559e+00 3.4793595430415287e+00 -3.5257670918257418e+00 0 0 0
81 1 1 3.8498411685617440e-01 1.9599539935840768e+00 -4.0091207326937788e+00 0 0 0
80 1 1 7.0963626964065585e-01 2.8377196710262931e+00 -3.9594352421327503e+00 0 0 0
76 1 1 8.6314343727624532e-01 2.0344552550804589e+00 -1.6932055353421382e+00 0 0 0
82 1 1 9.3472523145012087e-02 1.9339736234040124e+00 -5.0165010312972758e+00 0 0 0
75 1 1 2.4000648507926028e-01 1.3973130405186520e+00 -2.0966421140423894e+00 0 0 0
77 1 1 1.2192990287716523e+00 2.6591133531694928e+00 -2.2901835857890411e+00 0 0 0
74 1 1 6.5765395811649408e-01 6.3533242979006033e-01 -2.6145431585044845e+00 0 0 0
174 1 1 6.9839670458001757e-01 2.1188843747498415e-01 -5.0116043528587308e+00 0 0 0
112 1 1 1.0670944546010193e+00 2.2729349813677238e-01 1.8893182573296778e+00 0 0 0
113 1 1 1.8647412823901335e+00 5.4688587762417273e-01 2.2755980372571871e+00 0 0 0
111 1 1 2.8340338307733920e-01 3.1334760900046110e-01 1.3015463384910082e+00 0 0 0
114 1 1 2.2777259222062196e+00 3.3034732343668460e-01 1.4061979300805227e+00 0 0 0
109 1 1 1.5538697589133729e-01 2.0137575092188137e-01 2.2881814667490752e+00 0 0 0

Velocities

179 1.6497398963658041e+00 8.8133179707788822e-01 5.5177020103083889e-03
178 7.6410700705483725e-03 1.5813902825504153e-01 8.9377070933002356e-01
153 -2.0526922704312967e-01 4.1882418822506134e-01 -1.2876039780519251e+00
59 -1.2058165191952888e+00 -7.8332587876523851e-01 3.3820603161865553e-01
63 5.3671178612953085e-01 4.4201189466913676e-01 -3.5112922411896919e-01
32 6.6410522920492188e-01 7.8376919450634053e-01 -2.8227822964672700e-01
181 -9.0393562073335798e-01 3.9996290216693681e-02 -1.3333440386487636e+00
180 3.4093873320529816e-01 1.6903113890445427e+00 -5.9374278820772752e-01
61 7.3335208485580716e-01 5.8027260939378711e-01 1.9745894081584661e-01
193 6.0243226821656581e-01 -3.3924465937397125e-01 2.2209161258384222e-01
60 -1.0346582008995213e+00 2.0349922491874062e-01 4.7985621082279994e-02
155 -1.6320894970236477e+00 -1.3821351017806225e+00 -4.4306223198260264e-01
188 -1.7870720282003194e+00 -6.6737948479012754e-01 8.9782197659470131e-01
187 -1.0198104810096333e+00 4.8268570391005999e-01 -3.6050889391785185e-01
186 -4.0501863027779117e-01 6.3357205855484866e-01 1.1201565685147743e+00
184 2.2638912577996081e-01 1.1171841260444779e-01 6.1164972435235943e-01
182 -1.1800721195800554e+00 -1.0211680283413942e+00 -1.4369358468130211e+00
185 2.7696765780887389e-01 -6.3014316578565155e-02 4.9148361874644234e-02
157 -1.1800152158462776e+00 6.5155950950388208e-01 3.6334675664462701e-01
64 -1.0808167658806234e+00 1.3204549545131070e+00 -7.5920249418495289e-01
189 -5.2301683790283093e-01 7.9971513227163926e-01 4.4645971831410980e-01
183 -1.0037389457444921e+00 -1.9464819048363498e+00 1.1376693625708754e+00
176 2.9435600403641149e-01 -7.8214762370607815e-02 2.1766415867678672e+00
65 -1.4344144948855535e+00 -1.3589578915510430e+00 8.8068503836437473e-01
192 4.4961944340584259e-01 -1.0295019011156556e+00 -1.7364530858522806e+00
191 9.3846118656934496e-01 -1.6935807423743909e-01 6.2512053601459761e-01
190 -4.1015485890929049e-01 -9.4399177904145937e-01 -7.6903482444037663e-01
31 -9.7950333935812262e-01 -4.7521960447307748e-01 2.0052141160424055e+00
154 -8.1493980889156303e-01 -2.2414255685454087e-03 2.6757072775326662e-01
62 1.0195057116201274e+00 5.2855352324679583e-01 9.1496618298590227e-01
58 2.8713304067792167e-01 7.8323395504476534e-01 7.5140914493782601e-02
156 -1.3907667610998125e+00 1.2078392985525657e+00 -8.8456163629391882e-01
57 1.3946819024411866e-01 -2.6972503904150504e+00 5.5677535024702496e-01
195 -1.2151034322165994e+00 -1.5107519410519747e+00 1.8535978046778809e-01
8 -9.6755523405652477e-01 -1.1053215938001288e+00 1.7261758635928193e+00
108 -1.0451564604149823e+00 9.0854437954252276e-01 -1.2172758561285828e+00
102 2.1975111106841425e-01 2.0361885475193420e+00 1.2744828929854222e+00
141 -1.5153735462451909e-01 7.0799770203827800e-02 4.5410123418735004e-01
133 1.5522601018513478e+00 -7.8859002461954208e-01 6.4356413686680147e-01
146 1.9115312784955671e+00 8.5419488795429144e-01 -4.7595003942638708e-01
137 6.5523451134763833e-01 -4.4300791967135372e-01 1.6191236968596132e+00
199 -9.5101831512566770e-01 -5.7224102356267725e-01 8.7308879441286158e-01
150 -2.0458836518504961e+00 -4.8712365643709288e-02 1.6162037097124158e+00
2 -5.0904960943307054e-01 5.9365626452629772e-01 -3.4831883362724253e-01
4 -2.7964421735594902e-01 -2.2225716825950703e-02 6.8926978255962290e-01
106 -1.4138769188691727e-01 -1.3066148452909725e+00 6.0188141444724119e-01
7 -3.8062202795671757e-01 4.8782540932046908e-01 1.9180324107993058e-01
138 -1.5333497666828375e-01 6.6928579274247524e-01 9.2614469813391631e-01
5 3.4467143640106207e-01 -1.1015497932087377e+00 2.2839766594665636e+00
145 4.6914906444251370e-01 1.3959622370317584e+00 -2.5449771102841157e-01
144 -1.2319442086169023e+00 -1.0182317433924584e-01 -1.2462517918919301e-01
9 -1.5878526511370923e+00 -4.9832636586762619e-01 6.2320898649986567e-01
135 2.9563118561570689e-01 -2.7110128758871166e-01 3.9887357928119188e-01
196 1.2622305609972742e+00 6.3910423174466502e-01 -2.3377664333263062e+00
197 -3.7490692210533000e-01 3.1211484957121555e-01 8.0765752040562733e-01
198 -7.7926017479305432e-01 1.2225066856742774e+00 1.9874937736036652e-01
107 -1.1484345284457762e+00 1.0306390461509138e+00 -4.1186887258870619e-01
1 -4.1724452619097263e-01 -6.7462363701034189e-01 -3.8192120829692167e-01
129 -2.7246719575685541e-01 -2.5586312156472812e-01 -8.4018081603516670e-01
6 7.1480631919290216e-01 1.5827423359805098e-01 2.1818672888480597e+00
151 -3.3727610559418486e-01 -6.6975481761128286e-01 -5.9028383876015067e-01
101 8.3312009034267120e-01 -1.0487839845205438e+00 3.6813368271796260e-01
148 6.8755299954543747e-01 4.1988486085136140e-02 -5.0952627481130797e-01
194 4.3464571657071127e-01 -1.2526549796139561e-01 -1.3897364344141534e+00
143 8.7406848137194570e-01 1.9890143931852990e+00 -5.8796007593646138e-01
140 -1.9145225503376786e+00 1.2892934390380264e+00 -4.3893974140106617e-01
136 -1.0682900866631997e+00 -2.3972749167947129e+00 6.7884025389329572e-01
134 -3.2736008035831710e-01 -1.1085892351314597e-01 -1.2693493000048539e+00
132 1.0873243333610514e+00 1.4133010811904654e+00 -2.2845521668752036e-01
131 5.0396852551664972e-01 -1.0894581828851109e+00 -2.4854435212698105e+00
130 2.5011907937223881e+00 -2.4953173924258915e-01 -9.6572545471353122e-01
10 1.1087828669765092e+00 3.5292443910726196e-01 -6.9287832244627345e-01
147 -1.5930015591345423e-01 3.8687555314813188e-03 -1.2309038900781575e+00
152 -1.1752265131870150e+00 8.9978914533002052e-01 -9.9985472623542304e-01
200 -2.4850953722387112e-01 -1.4146978316241059e+00 1.0868258416832608e+00
3 1.0116795415689224e+00 7.5145631658168144e-01 -3.6433850251814071e-01
139 1.1670382997038666e+00 -4.0628229287790890e-01 5.8434247511581872e-01
149 9.7190597677677915e-01 3.4493027741016730e-03 -1.0277265825375341e+00
142 3.5995312141326480e-02 -8.0182270085727558e-01 -9.5875531941893832e-01
41 -1.6232992904492427e-02 5.9365943971062013e-02 4.3711732964435346e-01
86 2.1915097020271901e-01 1.5777826471230234e+00 4.2901078420196914e-02
85 1.4936077523402502e+00 -1.1335495015800012e+00 -1.2585610762217847e-01
40 2.1462054582452497e-01 -9.4938758498210163e-01 -1.7725987362108488e+00
39 -8.7863515587543317e-01 -7.8961291129793287e-01 -1.4087460176485798e+00
42 -4.2699611859536041e-01 1.0320906527345208e+00 -1.2276220908922575e+00
87 -6.6118332065050855e-02 3.8077739368476565e-01 4.5034229322117719e-01
43 6.3489176560740046e-01 2.0062176237205631e-01 1.2380735921625323e-02
51 8.0195581788856563e-01 -5.6253192319986345e-01 8.0029087970875745e-01
84 -1.2294077279103985e+00 -1.8513404082154822e-01 3.9977782970172232e-01
56 1.1015522793701484e+00 -1.3829000806465832e+00 -5.0791520086547259e-01
50 -9.1905663960516426e-01 -1.1765896209845876e+00 -9.5445637564443031e-01
98 -2.9511520083712284e-01 -2.9837458348669255e-01 -5.8275258067118890e-02
26 1.8812539505846512e-01 -5.6087192185210366e-01 1.0509361933075296e+00
55 -4.5772129236676451e-01 -8.7189280282020609e-02 1.0373236726617088e+00
54 1.5260044610784880e+00 -8.0538508916380935e-01 2.2810180239057893e+00
89 5.6849615240459450e-02 2.9552691709419282e-01 3.0561019354973923e-01
88 -3.3465894809068208e-01 -8.1449002201763199e-01 -1.0343214077282579e+00
53 2.8499744914329528e-01 7.4293190239021167e-01 -1.6034115198419432e+00
44 1.0071092068689788e-01 3.3491912973917037e-01 -9.4441011955233178e-01
45 -2.8322955695468927e-01 -1.8649882509218467e+00 2.1241938826884397e+00
52 8.4650877764371057e-01 1.6283322870756829e+00 -7.7721091303872925e-01
46 -3.6277760983071616e-01 2.9687887571416849e-01 -7.6289609115635892e-01
47 -1.0316777962902255e+00 3.4241310367193106e-01 -1.1960414744016436e-01
49 7.2872200358259698e-01 -1.0442825490975016e+00 2.0044042641002822e+00
35 -7.8229361523958085e-01 4.5474140226370552e-01 -1.9962274803663329e+00
90 1.5944406561216038e+00 1.1958836297753324e+00 8.9220346770397574e-01
48 2.3409292359633738e+00 -4.7042140465413923e-01 1.0158867814034942e+00
38 -2.4199496061041736e-01 -1.2657520875337167e+00 -9.0273971595020708e-01
96 -1.4231419713699986e+00 -1.2494618798747315e+00 6.9334303673402797e-01
36 -1.3127253088542581e+00 1.3023555359726711e+00 -5.3343099223053536e-01
91 1.2114556706767649e-01 -3.4171115000635993e-01 -1.1487334147071113e+00
92 -1.5515681690382652e+00 2.1588878739730039e-01 5.0533114183177097e-01
93 9.5240285942695779e-01 1.0601684462301675e+00 5.9745066780282707e-01
94 4.9381991498938016e-02 1.7543876426097988e+00 -9.5462446075840354e-02
95 6.1614774653202897e-01 1.2916011267103362e+00 -1.3993415209687582e-01
83 -4.2477247334393214e-01 7.4974515665637853e-01 -7.0903818032960164e-01
97 2.3477844560626432e-01 -1.9521248597236434e+00 -8.3897370846225794e-01
37 8.1497544030167290e-01 6.2250067452009894e-01 -5.5033858037938455e-01
99 -1.4106078535971116e+00 -1.2439295838726607e+00 1.3742215269016553e-01
29 -7.8521440582338331e-01 -1.6276258647651262e-01 6.0475735972209277e-01
28 7.9767262321415933e-01 7.6866723197448106e-01 -1.4618284626044558e+00
30 -1.2298393707834041e+00 -7.6563906559191908e-01 -1.7502130115173100e+00
27 -8.4016100256550730e-01 1.0148337517472152e+00 -3.6391215878991579e-01
34 1.8074976710736861e+00 1.0927102350655591e+00 -1.7734060449541962e+00
100 -7.6690322926906496e-01 -3.6197312266425352e-01 -2.1212939461918531e-02
33 -4.5909402970929375e-01 5.9569156251861721e-01 -1.4657934392210796e+00
20 -1.2763951851140709e+00 1.5999803126289974e-01 1.3770131180413969e-01
19 1.0212871035189626e+00 1.4794051763811533e+00 1.1615893585921182e+00
21 6.2727654681459388e-01 -9.3865898647144796e-01 -1.2450390224596125e-01
17 5.5729392355871488e-01 1.9421821656299276e-01 1.9945034819311561e-01
16 -1.1570252469602536e+00 2.1740553196663637e-01 -1.7832201274085282e+00
11 1.0623309506387152e-01 2.9649445986895029e-01 4.2651564784524421e-02
18 -7.2693055472161566e-02 7.3431442753821674e-01 1.3618199485492002e+00
23 -8.2535591315670620e-01 -4.2213755481123250e-01 2.3279609411799802e+00
15 1.9985647716102564e+00 1.4620766273662331e+00 1.3847407418118771e+00
104 6.9658047062502426e-01 8.5910610539327004e-01 -6.5584586183760030e-01
22 1.3857087165672564e+00 1.6756640505522299e-01 -2.8302610656163962e-01
105 -6.5992825520928411e-01 6.8097152235077640e-01 -2.4214897798607429e+00
24 -1.8013291114051926e+00 1.7142791743439076e+00 -5.2669681662169754e-01
14 -7.3882784491640441e-01 4.3088450231150005e-01 -6.6111671446876974e-01
13 1.3276719504967189e-02 1.0600531020142689e+00 5.0817399255470086e-01
25 -1.7763418786702678e-01 1.0484086129817705e+00 1.2559761911416514e+00
103 6.1094460917951865e-01 4.9226127928460028e-01 -3.7955206811671549e-01
12 1.6823759755737033e-01 -1.3539655467145667e-02 -1.3761364396648768e+00
110 3.0343376717213910e-01 1.3495612363081997e+00 1.0216168454766597e+00
166 -3.7262612798622136e-01 -9.6965584728415166e-01 7.9465105132922731e-01
66 -5.0890608015394234e-01 -8.1816882551626136e-01 3.3294337596437601e-02
171 -5.8818271408314848e-01 7.0440306615211545e-01 -4.1092635238772546e-01
160 1.2089166755076293e+00 -1.2172664979216674e+00 -1.0064923235169738e+00
164 -4.6870387443374251e-01 3.0946901829017992e-01 1.7666900429686672e-01
67 -6.6648790398872026e-01 3.8334404402116273e-01 -5.7666677692899537e-01
68 -1.0038477165612225e+00 -8.3861133168868240e-01 -1.2120509895848242e-01
162 1.2211480055953239e+00 -2.1999664428458021e-01 -1.8809420912912549e+00
73 -1.6689824661605899e+00 2.5006040096084243e+00 1.6008166158146948e+00
170 1.4812382537103003e-01 -1.6964399309638964e+00 -6.6430078362616274e-01
177 4.6498946971322347e-01 -1.1110013521686615e+00 1.2030143214739357e+00
161 1.3003971154633298e+00 9.6360722152207742e-02 2.3883927486880627e-01
165 1.1954995459659423e+00 7.6259212797571485e-01 -1.1153186067269296e+00
158 1.8435697527453674e+00 -2.7148113586773992e-01 -3.5867391578437569e-01
72 1.8744116469971195e+00 8.5971948531124132e-01 -6.4167525310465448e-02
163 -1.1925212629769455e-01 -3.6402865432597631e-01 1.4245532944302250e+00
71 1.2985775927314391e+00 2.3467196820320231e+00 -2.1722226982911290e+00
69 1.8469692369686910e+00 -3.5599006679274287e-01 -5.4292453917018668e-01
70 -1.1615801848851882e-01 -7.8570980470796803e-03 1.2818077640249748e+00
168 -1.3934648218372958e+00 7.1918762962937366e-01 -1.3079919269406155e+00
167 -4.5080280676619600e-01 6.9042475667776271e-01 -5.6873097054224153e-01
169 2.4457396021563893e-01 -2.1585728158902993e+00 -1.5226381498718430e-01
159 1.5218798729033536e+00 -1.8202738054961676e+00 -6.2331562980232125e-01
172 -4.1236871890839999e-01 2.3771080394074640e-01 -1.1782519771208815e+00
173 2.3761608788025650e+00 7.7278797781294850e-01 1.0357003685874996e-01
175 -1.8025116881504359e+00 1.2706533073792086e+00 4.5194015470132337e-01
116 1.3037604978660864e+00 1.0182804581083785e-01 9.6153017038033162e-01