LAMMPS data file via write_data, version 12 Dec 2018, timestep = 20000

100 atoms
1 atom types
100 bonds
1 bond types
100 angles
1 angle types

-2.5000000000000000e+01 2.5000000000000000e+01 xlo xhi
-2.5000000000000000e+01 2.5000000000000000e+01 ylo yhi
-2.5000000000000000e+01 2.5000000000000000e+01 zlo zhi

Masses

1 1

Atoms # angle

46 1 1 -1.0627075652032467e+00 -7.8035746107571557e-01 -3.0260345755362570e+00 0 0 0
17 1 1 -2.1036417504536087e+00 -4.8101724237324932e+00 -7.7716287746808665e-01 0 0 0
14 1 1 -3.8051351959249369e-01 -4.1347340481499195e+00 -1.3541767537991969e+00 0 0 0
16 1 1 -1.8538528158701422e+00 -3.9326420927241816e+00 -8.8673427751269607e-01 0 0 0
9 1 1 -2.3971868136136937e-01 -1.8529129161266344e-01 -1.6595254202097343e+00 0 0 0
15 1 1 -1.3268314535021237e+00 -4.3622149363667369e+00 -1.5246697980563622e+00 0 0 0
47 1 1 -2.7888753916446407e-01 -1.4171128720207682e-01 -3.2695902719213761e+00 0 0 0
43 1 1 -1.8054681927646272e+00 -1.7028882409945145e+00 -1.4102806289426109e+00 0 0 0
42 1 1 -2.0495321439112830e+00 -1.2935188412322476e+00 -6.6785607319204099e-01 0 0 0
13 1 1 -4.4587347386874526e-01 -3.2281238196314379e+00 -1.4723973476775478e+00 0 0 0
44 1 1 -1.4427850236811113e+00 -1.6841430057962248e+00 -2.3148874247176834e+00 0 0 0
45 1 1 -1.4047288685042298e+00 -7.2118053618345968e-01 -2.1459203809139682e+00 0 0 0
20 1 1 -1.3379852663282175e+00 -2.9163648687832890e+00 -4.7566052574459161e-01 0 0 0
10 1 1 -3.6899684732701754e-01 -1.1743174379206356e+00 -1.5899547028075025e+00 0 0 0
11 1 1 -3.0707385837543934e-02 -1.6989098477999949e+00 -8.9014005743382196e-01 0 0 0
41 1 1 -1.5469895623107641e+00 -7.8089964566446080e-01 -1.7654540549369353e-03 0 0 0
18 1 1 -2.0114302926213652e+00 -4.4429260257784779e+00 1.7475756677338961e-01 0 0 0
22 1 1 -1.1183039673548805e+00 -2.0141301296700576e+00 8.7444531110391632e-01 0 0 0
23 1 1 -5.7145844561372960e-01 -1.6103986737051506e+00 1.6282734890459334e+00 0 0 0
65 1 1 -6.6983632070874166e-01 -1.0588666546750998e+00 2.7511429927963484e+00 0 0 0
19 1 1 -1.9859708990182352e+00 -3.4517215558985961e+00 3.6139496640075541e-02 0 0 0
66 1 1 -1.2930386501180482e+00 -3.4411433296076516e-01 2.8377162246350842e+00 0 0 0
21 1 1 -7.4403614867855028e-01 -2.6184853460404978e+00 2.9281011931526774e-01 0 0 0
24 1 1 -1.7634498879489277e-01 -7.5240492549256144e-01 1.4446179352183457e+00 0 0 0
25 1 1 -9.6508047881201917e-02 -1.4590904542873262e-03 2.0442856291468017e+00 0 0 0
64 1 1 -1.2629626394798282e-01 -1.8477125333047795e+00 2.7105869044596722e+00 0 0 0
39 1 1 -1.0295578289297404e-01 -4.7828755860871108e-01 3.4397850705602856e-01 0 0 0
67 1 1 -2.1236290669305462e+00 -3.1514379018726313e-01 3.4503441840008540e+00 0 0 0
40 1 1 -8.9583961090196340e-01 -8.9879623481090298e-02 6.0614896060450098e-02 0 0 0
8 1 1 -6.7248717258138385e-02 6.9062726690517573e-01 -1.8205740847432621e+00 0 0 0
71 1 1 -5.6058579462573632e-01 2.2054119529318599e+00 4.3598283846838726e+00 0 0 0
73 1 1 -2.5488135635097825e-01 3.0202836471665182e+00 3.1293619292421213e+00 0 0 0
68 1 1 -1.8814064240969224e+00 4.7606830117716259e-01 3.9303470842217596e+00 0 0 0
74 1 1 -4.7121107628947756e-01 2.8664104941830280e+00 2.1974397809573345e+00 0 0 0
69 1 1 -1.7327759098989828e+00 1.4649823618792415e+00 3.7384493158713030e+00 0 0 0
70 1 1 -8.0609022266682295e-01 1.4168372239967681e+00 3.9246117664155817e+00 0 0 0
72 1 1 -5.0383116346973310e-02 2.1952414136178060e+00 3.5600623904616855e+00 0 0 0
53 1 1 4.0484552877960915e+00 -6.0195675302419915e-01 -1.1457042620984417e+00 0 0 0
52 1 1 3.1538418582256895e+00 -7.6528747413600451e-01 -1.4221061529843255e+00 0 0 0
50 1 1 1.6056825465383222e+00 -2.9018510607003967e-01 -2.2179605494229930e+00 0 0 0
84 1 1 1.6148456541277076e+00 -4.1153648420569727e-01 -2.1422119122197339e-01 0 0 0
48 1 1 3.5629296728420123e-01 -1.2372159563041812e-01 -2.5242745866366851e+00 0 0 0
12 1 1 2.2702173219062002e-01 -2.5991604609236125e+00 -1.1864341532721301e+00 0 0 0
51 1 1 2.2448179697063479e+00 -7.0285554788204407e-01 -1.7054298605722100e+00 0 0 0
32 1 1 1.3436724372747715e+00 -1.5911833520006542e+00 3.6089865044769249e+00 0 0 0
31 1 1 1.2040376205926000e+00 -1.0363155219001829e+00 4.4186986707354050e+00 0 0 0
35 1 1 1.7072609482549173e+00 -2.6274878733201592e+00 1.3665935202612529e+00 0 0 0
30 1 1 4.7412761334170250e-01 -9.3642529814277020e-01 3.8149609002950546e+00 0 0 0
33 1 1 1.5604891594414176e+00 -2.0715737278683317e+00 2.8227936608571209e+00 0 0 0
62 1 1 1.0695979942203386e+00 -8.6245722732664831e-01 1.9888154445219199e+00 0 0 0
29 1 1 8.8693169853051501e-01 -1.1997984821459151e-01 3.5752038346759036e+00 0 0 0
37 1 1 1.4429849971225683e+00 -1.6086048388125145e+00 2.8282984043295090e-01 0 0 0
36 1 1 9.3434568909980620e-01 -2.2602848737621337e+00 7.8424119009283499e-01 0 0 0
83 1 1 2.4710027449420271e+00 -3.1831342320279082e-01 2.2560771302539676e-01 0 0 0
34 1 1 2.2266465596589589e+00 -2.2801584061119353e+00 2.1701286577252001e+00 0 0 0
63 1 1 7.5244312643108191e-01 -1.3838928813259250e+00 2.6946392019390824e+00 0 0 0
61 1 1 1.8006145324524894e+00 -4.8650129093837730e-01 1.4213717629335332e+00 0 0 0
38 1 1 7.6163388934841048e-01 -9.3402098528020538e-01 4.2606093848370696e-01 0 0 0
82 1 1 3.2804206399940758e+00 -5.2018436000120585e-02 7.5014719982890332e-01 0 0 0
55 1 1 3.8063423511680594e+00 1.0549824791021680e+00 -1.8826479628913757e+00 0 0 0
58 1 1 3.3360868593592854e+00 1.1715131448168039e+00 -2.8350633013646137e-01 0 0 0
49 1 1 1.1460924769225207e+00 2.6660664836955711e-01 -2.8855898177567680e+00 0 0 0
88 1 1 1.9820063193376216e+00 2.8785936890913852e+00 -1.2860013895457094e+00 0 0 0
7 1 1 5.9000889147140023e-01 4.5635476703012412e-01 -1.1225897833932645e+00 0 0 0
86 1 1 1.6721804827266686e+00 1.2798622271189857e+00 -7.2833113522129089e-01 0 0 0
85 1 1 1.8881636387968725e+00 3.2645329993118272e-01 -7.1463606426714665e-01 0 0 0
56 1 1 3.1971185043906392e+00 1.4738113218631788e+00 -1.3353143204533025e+00 0 0 0
54 1 1 3.9747975205032766e+00 3.8508800487540101e-01 -1.2698399672469622e+00 0 0 0
6 1 1 2.9345618944197421e-01 1.2485375862064239e+00 -6.1744622878632860e-01 0 0 0
87 1 1 1.4229344445793015e+00 2.1862382796831672e+00 -9.0800660776859010e-01 0 0 0
57 1 1 3.7939501383017231e+00 1.8985383179385638e+00 -7.3004015078609030e-01 0 0 0
89 1 1 2.7416170158134712e+00 2.9949438228260106e+00 -7.1547769007375694e-01 0 0 0
77 1 1 2.0201143805802735e+00 2.9839476666071967e+00 2.1984453058131170e+00 0 0 0
4 1 1 9.0281063174567400e-01 7.4347856806698009e-01 1.0188110360413807e+00 0 0 0
80 1 1 3.1691940092253401e+00 1.0365826808880940e+00 2.0798700712395455e+00 0 0 0
97 1 1 4.0769328470644215e+00 1.5821264594469837e+00 2.7651241724136044e+00 0 0 0
96 1 1 4.3475661872951505e+00 2.4721067783258674e+00 2.6658247074354628e+00 0 0 0
59 1 1 2.6491472180460018e+00 8.4868192270640652e-01 3.3389144547631128e-01 0 0 0
95 1 1 4.1545548241016128e+00 2.0480533006509485e+00 1.8116869979766410e+00 0 0 0
91 1 1 3.3062717747040451e+00 3.8021789552618999e+00 7.6553685053836662e-01 0 0 0
81 1 1 3.6378740506863201e+00 5.3417878719406542e-01 1.4077065632039873e+00 0 0 0
26 1 1 6.0865014041726884e-01 5.4780026302289542e-01 2.4931598886628228e+00 0 0 0
75 1 1 4.2343588560718298e-01 2.3981493785210364e+00 2.1534022517480884e+00 0 0 0
78 1 1 2.5706566608120958e+00 2.6578182866027178e+00 2.9024555835466388e+00 0 0 0
92 1 1 3.1307106873256774e+00 3.0672184502667665e+00 1.3433364179840166e+00 0 0 0
76 1 1 1.3106935286526140e+00 2.3586521066819204e+00 1.7438002161599693e+00 0 0 0
79 1 1 2.7056907408978979e+00 1.8627520234573802e+00 2.2895851087657975e+00 0 0 0
3 1 1 1.4228289275634436e+00 7.1632773986966913e-01 1.8556682792633574e+00 0 0 0
2 1 1 1.6029105839149493e+00 1.0082676751499340e+00 2.7165917768379635e+00 0 0 0
90 1 1 2.8056410343110372e+00 3.1793899219994408e+00 2.0892152105261297e-01 0 0 0
27 1 1 4.1988822480663845e-01 8.1674329026011605e-01 3.3988768481060774e+00 0 0 0
93 1 1 3.4374921871699420e+00 3.4423806137489201e+00 2.1793055835277038e+00 0 0 0
98 1 1 4.1171450338443778e+00 1.6276614307326251e+00 3.7322845123083099e+00 0 0 0
60 1 1 2.1553762329206942e+00 3.8815933124326812e-01 1.1265122459341588e+00 0 0 0
100 1 1 2.7380481130793117e+00 6.3009181271525971e-01 3.8041499142784998e+00 0 0 0
1 1 1 2.2676722699747116e+00 1.2987004567268634e+00 3.3038372591934322e+00 0 0 0
94 1 1 4.1470272902672844e+00 2.9977586426099259e+00 1.6893179222284622e+00 0 0 0
99 1 1 3.6637465350343406e+00 7.8694683347519911e-01 3.6766380264318532e+00 0 0 0
28 1 1 4.2525419761976307e-01 3.3558389379135167e-01 4.3049855788703111e+00 0 0 0
5 1 1 7.1956687154374488e-01 7.6107909132085816e-01 6.4505775545136881e-02 0 0 0

Velocities

46 1.3355541009983758e+00 -1.3502179707811226e+00 1.0747215748766605e+00
17 -6.5285201529178316e-01 1.3362249505335444e-01 8.5998991486316467e-01
14 7.0969350041417312e-01 1.2892435051706697e+00 2.4796405826942811e-01
16 -3.1624362937515266e-01 2.1691025515850521e-01 7.2883280646258111e-02
9 8.8028272504140859e-01 -1.2093190242965175e+00 9.9909654453967178e-01
15 1.4013640458368545e-01 -1.4491778203074668e+00 1.1099906533884354e+00
47 -9.2900421475308326e-01 6.1108484335226543e-01 -2.7011423033317978e+00
43 -1.2283898203799176e-01 1.9190958194428953e-01 -5.7686131223520509e-02
42 -3.6306913783455941e-01 -9.8664511877364025e-02 7.7264408226483738e-01
13 -1.1109025948857607e+00 9.0537893423619109e-01 -4.8824706251261563e-01
44 -3.3619186769200654e-01 7.8999012598790441e-01 5.5975694110566732e-01
45 5.4692184829923074e-01 8.2948233395816284e-01 -7.0057204601942569e-01
20 8.9427461825380450e-01 5.2994044364435977e-01 -4.7491075664573568e-01
10 9.3279694782816863e-02 6.1041496746210167e-01 6.7605756466258260e-01
11 -3.3575538665465515e-01 7.8033071543378435e-02 -2.1060269037789489e-01
41 3.8157534316686659e-01 -7.1235956526217753e-02 -1.7098975134934725e-02
18 -9.0631917620815772e-01 -1.0632663614910869e+00 -1.7857423233596859e+00
22 2.1036449069981714e-02 -2.8476197620726340e-01 -2.1299575601587101e-01
23 -4.0199481555800942e-02 -1.0802079982958406e+00 -4.1230518505468944e-01
65 1.4091175021085600e+00 3.9298701545181480e-01 5.5634000379560311e-01
19 9.4931321090020282e-01 -9.4455627873324155e-01 1.0390535612954808e-01
66 -1.0304532159708140e+00 5.3840369198099902e-01 1.1066106291361129e+00
21 -3.2742320321574037e-01 8.9772908292843345e-01 -6.4171540191895970e-01
24 2.8093040097798860e-01 -5.6315772027210324e-02 -9.4278678775825547e-02
25 8.9086181984839918e-02 1.7512167411341955e+00 -1.6249902466076034e+00
64 1.8131146889983321e-01 -1.2188999681782349e+00 1.3452959741919295e+00
39 1.0046807689693189e+00 -6.6697588129286356e-01 7.4955500638943773e-01
67 1.0294665932334699e+00 -5.5787034321411622e-01 7.5117717774517245e-01
40 8.8112886608628993e-01 -8.1954580821463185e-01 -4.4362377283370757e-01
8 4.1720487421262886e-02 -5.3219953586622681e-02 -2.0717437531067491e+00
71 -1.2712580875950095e+00 6.1501363331478473e-02 1.8062227218344549e+00
73 4.5275088029567867e-01 3.8401674338454495e-01 7.2455600353669836e-01
68 4.1812414486113769e-01 3.6736792204871555e-02 -9.4960787120005219e-01
74 -1.7805391811104503e+00 7.8826158863140094e-01 7.1660713365164508e-01
69 -4.3062653582165789e-01 2.6274136782960150e-01 -7.8243044834417319e-01
70 -8.6186661482896487e-01 7.0578712952325884e-01 8.8534102200363629e-01
72 -5.2787959138522023e-01 1.0175798230818088e-01 1.1373466131374550e+00
53 -2.3708382345144596e-01 7.8007635618379456e-01 -1.7343650881519952e+00
52 7.6762411396967833e-01 -6.5424493445536058e-01 -1.2445261003199624e+00
50 -4.8853494807583980e-01 -7.6554219296007781e-02 -2.0487021718594614e-01
84 1.2077736857145036e-01 5.2947134025098375e-01 6.7393759139688747e-01
48 -6.6941989487674758e-01 -6.5830420115004773e-01 -2.1587166224047838e+00
12 -2.8775229993672091e-01 2.9242387506741790e-01 -3.1977783459491677e-01
51 -2.6494847234848701e-01 -1.2850509199161977e+00 1.9969866055657215e-01
32 -9.7463576057505752e-01 -6.3645321005536681e-01 -3.1134571519253096e-01
31 2.7642891947138254e-01 1.2787912326921900e+00 -7.9765481443211572e-01
35 -1.2013580036988603e-01 -1.1072710188737338e+00 -4.7120414335604532e-01
30 -1.9510140949681490e-01 -5.3432688533916950e-01 -2.7504778702458571e-01
33 -4.0822041209472332e-02 -5.3897881705153894e-01 -3.5507154772809013e-01
62 -2.2147287744643437e-01 4.0021320016614348e-01 6.7947854975605804e-01
29 -3.9208914526431171e-01 -4.6061420141301540e-01 3.4884738802566556e-01
37 4.1714191480336871e-01 -1.6612447819147094e+00 6.5579767775393027e-01
36 6.0435128018070305e-01 6.8715698945281811e-01 -1.0664558041495773e+00
83 7.1557590116797321e-01 -1.5352112888467812e-01 -1.6425459480781419e+00
34 1.0290257812818397e-01 4.3615936739749311e-02 -1.9545181548414411e-01
63 1.0386447502345648e+00 -8.8685666991851864e-01 -1.2018005825458422e+00
61 6.4971060751342447e-01 7.3463252989435646e-01 -3.2001879144772660e-01
38 -8.1784448408684007e-01 -1.3541132042296777e+00 2.0469502138783700e+00
82 -7.6098043808874449e-01 1.5973879695357945e-01 1.5201961925880827e+00
55 -7.1602117752991856e-03 1.1787330278643509e+00 -5.9471840027723011e-01
58 1.0759933259989984e+00 8.0764015637184350e-01 -3.5010340388756228e-01
49 2.9695772737655574e-01 1.4826222858815086e-01 -1.0765453315377416e+00
88 1.1487553615893191e+00 -1.0366686632152000e+00 -2.2340974255497525e-02
7 1.1812653163721745e+00 -9.0525172163558532e-01 -1.2426248891396602e-01
86 -1.3835419973677504e-01 -8.6626183406703339e-01 1.1959294253232473e+00
85 -2.4950202257366572e-01 -3.9487052569943809e-02 -1.4585725246439445e+00
56 3.4669938830769187e-01 -3.2022847616843431e-02 5.6022174290305626e-01
54 1.6024795665706876e-01 -6.8278777251918965e-01 -6.2965641092729729e-02
6 6.8985161757215674e-01 -2.3421381317894490e+00 1.3008549639095055e+00
87 -5.1206266935146649e-01 -6.4012823778815175e-01 -1.7753022040724964e+00
57 -7.8181108478515138e-01 -2.3184044957577565e-01 -7.1507561502445627e-01
89 9.4181128016386084e-01 -1.0581247615605749e+00 -1.6019699741923648e+00
77 -3.0438426395321694e-01 -1.4176982646859648e+00 1.1590395057888205e+00
4 -1.1888091698389727e+00 2.8410868708327852e-01 1.1621833415178076e+00
80 9.0121773239929825e-01 8.5674030941976703e-02 -2.0689422528653667e+00
97 -1.7259640145109503e+00 1.2550248479473520e+00 -2.9450917030167867e-01
96 3.9826349264151770e+00 3.3678128776538618e-01 -2.4980292025932100e+00
59 -9.8966429994487792e-01 -3.5843121213348400e-01 -2.8417011582260304e-01
95 3.5528442693340684e-01 1.1545283820673995e+00 1.7278902225210451e+00
91 -1.0218293988162321e+00 -7.6478971424042186e-01 -5.2830347818284704e-02
81 1.8164724204696616e+00 -1.6188658185406490e-01 2.6103044298947706e+00
26 -4.5971703309177070e-01 1.5985175601131119e-01 1.0470032121055926e+00
75 -1.3618619632447788e+00 1.6620375082442246e-01 5.4740609935249179e-02
78 -4.4462999795181019e-01 3.6535628769091777e-01 -5.3894307322694246e-01
92 -5.1185652244440161e-01 8.1425230179697217e-01 -5.6264941204797536e-01
76 1.0618203177979959e+00 3.4788531671517153e-01 -6.7992110089872093e-01
79 1.6785771273203645e-01 1.5614771113916293e+00 1.3538275799516089e+00
3 -4.3421569259384968e-01 6.4159583458091585e-01 -1.1040178109805394e+00
2 -1.3860141201465126e+00 1.3663363851391728e+00 2.0921321023291028e+00
90 -3.6150863538233574e-01 7.2362644363925727e-02 -1.0145850613559539e+00
27 -4.4342842521964709e-01 1.0486230308722937e+00 7.5129655072966817e-01
93 -1.0492467173708746e+00 -1.0028974012510334e+00 -2.0975549428518217e-01
98 -6.0782747971454565e-01 -6.6219518398971344e-01 5.6213848159123869e-01
60 4.7097106440541409e-02 1.1080832692495357e-01 8.4790325017585322e-02
100 -9.8873578706461285e-01 3.0530608699415457e-01 -2.1292325403935410e-02
1 -5.2536785354274618e-01 5.5850760111156528e-01 1.2171139472542756e+00
94 6.3081876225599920e-01 -6.9490705306661626e-01 1.0178821512738610e-01
99 -4.1266385663162257e-02 1.3342411134016385e-01 1.0350868044491501e+00
28 -1.4485005576698748e+00 8.5374839016449822e-01 5.3878258923024724e-01
5 -8.4858576120804718e-01 1.6968833651209432e+00 6.6035442699637625e-01

Bonds

1 1 46 47
2 1 17 18
3 1 14 15
4 1 16 17
5 1 9 10
6 1 15 16
7 1 47 48
8 1 43 44
9 1 42 43
10 1 13 14
11 1 44 45
12 1 45 46
13 1 20 21
14 1 10 11
15 1 11 12
16 1 41 42
17 1 18 19
18 1 22 23
19 1 23 24
20 1 65 66
21 1 19 20
22 1 66 67
23 1 21 22
24 1 24 25
25 1 25 26
26 1 64 65
27 1 39 40
28 1 67 68
29 1 40 41
30 1 8 9
31 1 71 72
32 1 73 74
33 1 68 69
34 1 74 75
35 1 69 70
36 1 70 71
37 1 72 73
38 1 53 54
39 1 52 53
40 1 50 51
41 1 84 85
42 1 48 49
43 1 12 13
44 1 51 52
45 1 32 33
46 1 31 32
47 1 35 36
48 1 30 31
49 1 33 34
50 1 62 63
51 1 29 30
52 1 37 38
53 1 36 37
54 1 83 84
55 1 34 35
56 1 63 64
57 1 61 62
58 1 38 39
59 1 82 83
60 1 55 56
61 1 58 59
62 1 49 50
63 1 88 89
64 1 7 8
65 1 86 87
66 1 85 86
67 1 56 57
68 1 54 55
69 1 6 7
70 1 87 88
71 1 57 58
72 1 89 90
73 1 77 78
74 1 4 5
75 1 80 81
76 1 97 98
77 1 96 97
78 1 59 60
79 1 95 96
80 1 91 92
81 1 81 82
82 1 26 27
83 1 75 76
84 1 78 79
85 1 92 93
86 1 76 77
87 1 79 80
88 1 3 4
89 1 2 3
90 1 90 91
91 1 27 28
92 1 93 94
93 1 98 99
94 1 60 61
95 1 100 1
96 1 1 2
97 1 94 95
98 1 99 100
99 1 28 29
100 1 5 6

Angles

1 1 45 46 47
2 1 16 17 18
3 1 13 14 15
4 1 15 16 17
5 1 8 9 10
6 1 14 15 16
7 1 46 47 48
8 1 42 43 44
9 1 41 42 43
10 1 12 13 14
11 1 43 44 45
12 1 44 45 46
13 1 19 20 21
14 1 9 10 11
15 1 10 11 12
16 1 40 41 42
17 1 17 18 19
18 1 21 22 23
19 1 22 23 24
20 1 64 65 66
21 1 18 19 20
22 1 65 66 67
23 1 20 21 22
24 1 23 24 25
25 1 24 25 26
26 1 63 64 65
27 1 38 39 40
28 1 66 67 68
29 1 39 40 41
30 1 7 8 9
31 1 70 71 72
32 1 72 73 74
33 1 67 68 69
34 1 73 74 75
35 1 68 69 70
36 1 69 70 71
37 1 71 72 73
38 1 52 53 54
39 1 51 52 53
40 1 49 50 51
41 1 83 84 85
42 1 47 48 49
43 1 11 12 13
44 1 50 51 52
45 1 31 32 33
46 1 30 31 32
47 1 34 35 36
48 1 29 30 31
49 1 32 33 34
50 1 61 62 63
51 1 28 29 30
52 1 36 37 38
53 1 35 36 37
54 1 82 83 84
55 1 33 34 35
56 1 62 63 64
57 1 60 61 62
58 1 37 38 39
59 1 81 82 83
60 1 54 55 56
61 1 57 58 59
62 1 48 49 50
63 1 87 88 89
64 1 6 7 8
65 1 85 86 87
66 1 84 85 86
67 1 55 56 57
68 1 53 54 55
69 1 5 6 7
70 1 86 87 88
71 1 56 57 58
72 1 88 89 90
73 1 76 77 78
74 1 3 4 5
75 1 79 80 81
76 1 96 97 98
77 1 95 96 97
78 1 58 59 60
79 1 94 95 96
80 1 90 91 92
81 1 80 81 82
82 1 25 26 27
83 1 74 75 76
84 1 77 78 79
85 1 91 92 93
86 1 75 76 77
87 1 78 79 80
88 1 2 3 4
89 1 1 2 3
90 1 89 90 91
91 1 26 27 28
92 1 92 93 94
93 1 97 98 99
94 1 59 60 61
95 1 99 100 1
96 1 100 1 2
97 1 93 94 95
98 1 98 99 100
99 1 27 28 29
100 1 4 5 6
