LAMMPS data file via write_data, version 12 Dec 2018, timestep = 20000

200 atoms
1 atom types
200 bonds
1 bond types
200 angles
1 angle types

-3.5000000000000000e+01 3.5000000000000000e+01 xlo xhi
-3.5000000000000000e+01 3.5000000000000000e+01 ylo yhi
-3.5000000000000000e+01 3.5000000000000000e+01 zlo zhi

Masses

1 1

Atoms # angle

182 1 1 -5.0780543333123811e+00 -4.1933755692331465e+00 -1.7310350196011945e+00 0 0 0
181 1 1 -4.4054398043723237e+00 -3.5365827834281016e+00 -1.8242989746652676e+00 0 0 0
185 1 1 -6.0678751961773285e+00 -2.6598115698852149e+00 -2.7134087681560746e+00 0 0 0
179 1 1 -3.8003709832658790e+00 -4.0970174084326239e+00 -9.8789618272145174e-01 0 0 0
184 1 1 -5.1402234011969039e+00 -3.0031452388626168e+00 -2.7000733787530229e+00 0 0 0
183 1 1 -5.4351200012788023e+00 -3.9118773259863224e+00 -2.5866549143577888e+00 0 0 0
180 1 1 -3.5081343003266414e+00 -3.3628667825367309e+00 -1.5226200695610470e+00 0 0 0
178 1 1 -3.7932132526721363e+00 -4.4838010655215994e+00 -1.8893893313340049e+00 0 0 0
115 1 1 -2.3179732237099442e+00 -3.9183061098777811e-01 -2.4835242209002666e+00 0 0 0
116 1 1 -1.4267025888969633e+00 -5.6489246272263227e-01 -2.6884187891364268e+00 0 0 0
186 1 1 -6.1369089288515113e+00 -2.4909160080103376e+00 -3.6286018267992053e+00 0 0 0
187 1 1 -7.0535243108489221e+00 -2.3483565785645157e+00 -3.3080815747087771e+00 0 0 0
189 1 1 -7.0964814453800589e+00 -7.3546561934327748e-01 -2.2855916726522008e+00 0 0 0
188 1 1 -7.2799292164095410e+00 -1.4748074933939939e+00 -2.9232087868335594e+00 0 0 0
112 1 1 -3.2333505826315450e+00 -2.2144791528298244e-01 -4.2000992031850995e-02 0 0 0
177 1 1 -2.8849555489004821e+00 -4.2004010499249986e+00 -2.0232533249578255e+00 0 0 0
175 1 1 -1.3662086156367368e+00 -3.4369269000197114e+00 -1.8766452089983738e+00 0 0 0
190 1 1 -6.3227729352643696e+00 -3.4891725126916562e-01 -1.8841609694003842e+00 0 0 0
174 1 1 -1.2121639204023225e+00 -3.4707841004131219e+00 -2.7718022581252968e+00 0 0 0
173 1 1 -4.2187359305253341e-01 -3.9437846064223212e+00 -3.0899299988505402e+00 0 0 0
176 1 1 -1.9640821868669163e+00 -4.1503859921955009e+00 -1.8130420520569617e+00 0 0 0
117 1 1 -1.1160097667980002e+00 -7.5633292887984238e-01 -1.8307797438332976e+00 0 0 0
18 1 1 -2.0577787940407681e+00 -4.0062476832944007e+00 2.1136454224295522e+00 0 0 0
32 1 1 -3.4489112656727698e+00 -3.1790352999455997e+00 7.1468401382425490e+00 0 0 0
35 1 1 -9.1031715044691908e-01 -3.9989737534786225e+00 6.3514047295667906e+00 0 0 0
33 1 1 -2.7399571450975535e+00 -3.8491723655738279e+00 7.0527444688578251e+00 0 0 0
109 1 1 -4.2945564370677056e+00 -3.2226150681393445e-01 2.3297038003918540e+00 0 0 0
20 1 1 -3.8171428822982696e+00 -3.6700686859700311e+00 1.9858841443231967e+00 0 0 0
21 1 1 -3.5978498352357495e+00 -2.9703618083019903e+00 2.6213775856376182e+00 0 0 0
19 1 1 -3.0025847593985442e+00 -4.1164739309913321e+00 1.8493380571580844e+00 0 0 0
39 1 1 -2.0328717844653846e-01 -3.3474895412751660e+00 4.3569723770963034e+00 0 0 0
110 1 1 -3.9303092015046297e+00 -5.6726979511663722e-01 1.4373003912736939e+00 0 0 0
108 1 1 -4.2411393950485792e+00 -6.4844895612078635e-01 3.2277359143193562e+00 0 0 0
37 1 1 -5.7192305837878255e-01 -2.9897770616331867e+00 5.4166257675847529e+00 0 0 0
107 1 1 -3.3627392553674804e+00 -7.1240730650078754e-01 3.7651408292236663e+00 0 0 0
23 1 1 -4.4214292055791402e+00 -4.4357269636745595e+00 2.9112878780879554e+00 0 0 0
98 1 1 -3.2526751670142601e-01 -4.5963242925517758e+00 3.1332271740244946e+00 0 0 0
22 1 1 -3.7018442503134312e+00 -3.7956521482514329e+00 3.1028854144936013e+00 0 0 0
99 1 1 -9.9613360620886315e-01 -4.1232953464699174e+00 3.6762867482172861e+00 0 0 0
100 1 1 -1.7401781768043971e+00 -4.7393934576022598e+00 3.5049533866814189e+00 0 0 0
101 1 1 -2.1727388121637627e+00 -4.0848809896986937e+00 4.1396084964104931e+00 0 0 0
106 1 1 -3.0835111973950613e+00 -1.7305749879372563e+00 3.8518541233947858e+00 0 0 0
31 1 1 -4.3030266345791972e+00 -3.5814619935034746e+00 7.3057682707308524e+00 0 0 0
15 1 1 -1.7180808844072546e+00 -1.7411054442441440e+00 2.9448758267837651e+00 0 0 0
24 1 1 -4.3656851277539479e+00 -4.3413353985039720e+00 3.9374668264921775e+00 0 0 0
103 1 1 -3.1408364137361970e+00 -2.7108344067607510e+00 4.9156505655132730e+00 0 0 0
102 1 1 -2.5938399036366810e+00 -3.4383564426764410e+00 4.6964848848752112e+00 0 0 0
105 1 1 -3.7561448321938915e+00 -2.3503698840352221e+00 3.7515975375562660e+00 0 0 0
104 1 1 -3.7284540405248046e+00 -1.9361950509498387e+00 4.6051659703299066e+00 0 0 0
28 1 1 -3.8048626514013817e+00 -4.1102194582839964e+00 6.1505053190824510e+00 0 0 0
27 1 1 -4.1185417314725594e+00 -3.2178826374353475e+00 5.9425773912488040e+00 0 0 0
26 1 1 -4.2137723206917652e+00 -3.7706464742963179e+00 5.1119769712812158e+00 0 0 0
25 1 1 -3.8933572815630972e+00 -3.5808293771993349e+00 4.2435726813237915e+00 0 0 0
29 1 1 -4.6562866872947835e+00 -4.4648634887872909e+00 6.0702215774086046e+00 0 0 0
30 1 1 -4.4534719634034605e+00 -4.5303248716221116e+00 7.0083042158596234e+00 0 0 0
34 1 1 -1.7174193530979753e+00 -3.8845089029248716e+00 6.8864486193476750e+00 0 0 0
38 1 1 -1.0514545124385630e+00 -2.8614442972408938e+00 4.5816027438548765e+00 0 0 0
13 1 1 -9.9967097777945269e-01 -6.7383677052732016e-01 3.2126113953438313e+00 0 0 0
36 1 1 -4.6114055812527022e-01 -3.1828746402513777e+00 6.3643514021827841e+00 0 0 0
17 1 1 -1.5116079048622910e+00 -3.1608660732788838e+00 2.0395818486674990e+00 0 0 0
14 1 1 -1.3612023427728952e+00 -1.3584075739377877e+00 3.7880302203628107e+00 0 0 0
16 1 1 -2.0494280536858223e+00 -2.6704715215521575e+00 2.7350009296102193e+00 0 0 0
111 1 1 -3.1263890378544090e+00 -5.2939981219560484e-01 8.5992837287450241e-01 0 0 0
12 1 1 -2.3909297361005283e-01 -1.1449928077789612e-01 3.5294086671863192e+00 0 0 0
97 1 1 -2.1588778827746771e-01 -5.1760649023245522e+00 2.3939937908377504e+00 0 0 0
41 1 1 -2.3406281221072442e-01 -3.3600358833326194e+00 3.3197429585382259e+00 0 0 0
119 1 1 -1.5007754376799993e+00 7.8151084721708997e-01 -2.1098933928103021e+00 0 0 0
195 1 1 -3.4402836688148666e+00 1.2643321526916806e+00 -9.5566145548753190e-01 0 0 0
196 1 1 -2.4931927894333499e+00 1.2544518507272426e+00 -1.0917319528228713e+00 0 0 0
193 1 1 -5.3341903244921003e+00 1.2937301456966201e+00 -1.5076525525304869e+00 0 0 0
197 1 1 -2.3353061189797986e+00 1.4958052313713788e+00 -1.5334873968065713e-01 0 0 0
118 1 1 -1.6005918557394905e+00 3.7152078059137485e-02 -1.5832262623577456e+00 0 0 0
122 1 1 -4.5338177665267965e-01 9.8123850957971992e-01 -3.6328989919326315e+00 0 0 0
194 1 1 -4.3414765482818751e+00 1.3240917771122998e+00 -1.3627838568043593e+00 0 0 0
121 1 1 -7.2807226822937077e-01 1.2265572174726957e+00 -2.7464523877288123e+00 0 0 0
192 1 1 -5.0096101659416323e+00 9.3901041045467459e-01 -2.3431660772192271e+00 0 0 0
200 1 1 -1.3293876004456946e+00 1.0581041195637180e+00 -5.9768807572120004e-02 0 0 0
120 1 1 -5.5822910811734305e-01 4.5527435171047870e-01 -2.1663207044736676e+00 0 0 0
191 1 1 -5.5077111245278036e+00 2.4795751351852413e-01 -1.9034598269223104e+00 0 0 0
123 1 1 -3.8677307319319737e-01 5.1609685882528511e-01 -4.4614360639716830e+00 0 0 0
199 1 1 -8.6247835759903180e-01 1.8987362853619758e+00 -1.4052919559552890e-01 0 0 0
113 1 1 -3.3366601053321094e+00 1.4972520297377889e-01 -9.6993047073692806e-01 0 0 0
114 1 1 -2.7577412890156157e+00 9.8768658048044803e-03 -1.7088628918856581e+00 0 0 0
1 1 1 -7.0624207078506895e-01 5.8687546769029031e-01 4.7836715506884969e-01 0 0 0
198 1 1 -1.6801444070470659e+00 2.0742893951629369e+00 3.1006475242956077e-01 0 0 0
68 1 1 4.0785952375489058e+00 -4.5948622933497596e-01 -6.3449815100528806e+00 0 0 0
164 1 1 3.6187844525248698e+00 -1.0596393532281041e+00 -8.6454900563392822e-01 0 0 0
70 1 1 2.4539318135458483e+00 -1.0507216683800986e+00 -7.0241803438832981e+00 0 0 0
69 1 1 3.4121163645408381e+00 -1.1160818021138905e+00 -6.6725955665677530e+00 0 0 0
171 1 1 2.1363976828625927e-01 -2.8767474343869330e+00 -4.0398402360804804e+00 0 0 0
168 1 1 1.2460515808481112e+00 -2.1558054783603433e+00 -2.2525143462974846e+00 0 0 0
72 1 1 2.2506954671098685e+00 -2.3592341680927302e+00 -6.2031345129737776e+00 0 0 0
73 1 1 1.9276619124023724e+00 -1.7391810147478077e+00 -5.3814904524890448e+00 0 0 0
71 1 1 1.7942980581682288e+00 -1.6108356635106509e+00 -6.5830915051042558e+00 0 0 0
150 1 1 7.4807048098890716e+00 -5.3880293971070357e+00 -2.1949809274300741e-01 0 0 0
53 1 1 4.4237179596387444e+00 -1.3653936202675963e+00 -3.3913993922617474e+00 0 0 0
74 1 1 2.3480514773606389e+00 -1.3588544807888017e+00 -4.6535401547649444e+00 0 0 0
135 1 1 2.3982194147235627e+00 -4.0705426852333160e+00 -3.7904578960778177e+00 0 0 0
75 1 1 1.8825088403548653e+00 -6.4678376815907768e-01 -4.2319753459066760e+00 0 0 0
134 1 1 2.9850362677777342e+00 -3.4466242974805268e+00 -4.1235123762361772e+00 0 0 0
133 1 1 3.1728642990300480e+00 -2.9211290399795504e+00 -4.9466932579793008e+00 0 0 0
132 1 1 4.0217993080685988e+00 -2.8431255278372869e+00 -5.3700591961252506e+00 0 0 0
136 1 1 3.0398728647177009e+00 -4.6667978947656250e+00 -3.4457253465106334e+00 0 0 0
137 1 1 3.3216396336979370e+00 -5.2690670955341306e+00 -2.7080077988931879e+00 0 0 0
138 1 1 4.1078186353393678e+00 -4.6334051676102019e+00 -2.8538961131519218e+00 0 0 0
139 1 1 4.7254118092055259e+00 -4.1358474611265494e+00 -3.3828234194620830e+00 0 0 0
76 1 1 2.2629542568037624e+00 -1.2089721940113114e+00 -3.4820209666774686e+00 0 0 0
77 1 1 2.9547053819853430e+00 -5.8356573155614810e-01 -3.7028461031515079e+00 0 0 0
130 1 1 3.8653223479653942e+00 -1.0965688899614738e+00 -5.4356664999243725e+00 0 0 0
131 1 1 3.5005037984640390e+00 -2.0228872539231109e+00 -5.5332669320057528e+00 0 0 0
129 1 1 3.6138662048366710e+00 -6.2197774895785785e-01 -4.5961319667289686e+00 0 0 0
170 1 1 4.3063964475475475e-01 -2.4946697462589102e+00 -3.2207983040729409e+00 0 0 0
140 1 1 5.1459680874217133e+00 -4.9988619755428179e+00 -3.6857843785203328e+00 0 0 0
141 1 1 5.6293193734087916e+00 -5.7983330271366302e+00 -3.5559980574339121e+00 0 0 0
142 1 1 6.5329174462022692e+00 -5.9761001562408333e+00 -3.7797312172915185e+00 0 0 0
146 1 1 7.6364308379387564e+00 -5.5628962850155741e+00 -2.6950909319700163e+00 0 0 0
147 1 1 7.4986443602690587e+00 -5.5637031037946993e+00 -1.7472088378106829e+00 0 0 0
167 1 1 1.1169495668027880e+00 -1.8329431304724841e+00 -1.3137047004657021e+00 0 0 0
54 1 1 5.0923314500786079e+00 -7.9607026665202940e-01 -3.9477555487718146e+00 0 0 0
55 1 1 5.7662160984847937e+00 -1.0905342706423657e-01 -4.2003485391242554e+00 0 0 0
143 1 1 6.6673367015807301e+00 -6.9379009333295087e+00 -4.0096185017227954e+00 0 0 0
144 1 1 7.0347066430394332e+00 -7.2726833803203039e+00 -3.1788892533847828e+00 0 0 0
145 1 1 7.4412869063495313e+00 -6.3512834071230380e+00 -3.1819968598169366e+00 0 0 0
148 1 1 6.8110698818019024e+00 -5.0953477224028090e+00 -1.2557211499708625e+00 0 0 0
149 1 1 7.6495558845287812e+00 -4.7145115261720951e+00 -9.2988504342832168e-01 0 0 0
163 1 1 4.1438958626381632e+00 -1.9198232326330908e+00 -6.9016663800666256e-01 0 0 0
166 1 1 2.0267861375478007e+00 -1.6216184227682182e+00 -1.6117398674384453e+00 0 0 0
52 1 1 4.7536776504879938e+00 -1.9229869523959096e+00 -2.6056673206164973e+00 0 0 0
169 1 1 4.1079878016640764e-01 -1.8240552438466153e+00 -2.4983383951903528e+00 0 0 0
50 1 1 3.4038216613288439e+00 -2.7161258548469287e+00 -2.0557650549380782e+00 0 0 0
49 1 1 3.0692765008623351e+00 -2.5098317516917397e+00 -1.1227866011761070e+00 0 0 0
48 1 1 2.8617934230989248e+00 -3.3825134078238328e+00 -6.7116499904846061e-01 0 0 0
47 1 1 2.1868338679729216e+00 -4.0106580392150022e+00 -3.7020181217126535e-01 0 0 0
165 1 1 2.9250722259616397e+00 -1.3307667957742872e+00 -1.5143863579974792e+00 0 0 0
51 1 1 4.2979244545853348e+00 -2.4323480279900092e+00 -1.9455204142758031e+00 0 0 0
127 1 1 2.5846676758844480e+00 -1.3098527206812755e-01 -5.6777928742635071e+00 0 0 0
126 1 1 1.6414431130311704e+00 -3.7816586554981152e-01 -5.3339708873044867e+00 0 0 0
85 1 1 2.1360509541146895e+00 -7.5671466462909898e-01 -3.5641012541900657e-01 0 0 0
172 1 1 2.7277614083839513e-01 -3.7951078523121184e+00 -3.8298414236298259e+00 0 0 0
124 1 1 1.8392370859092544e-01 -2.8798031870131241e-01 -4.5307898647702585e+00 0 0 0
95 1 1 1.4007713739929475e+00 -5.8825669154975504e+00 2.6905283934011401e+00 0 0 0
96 1 1 4.9904987105929538e-01 -5.9023254239654177e+00 2.3327747861122741e+00 0 0 0
156 1 1 4.9460159314531600e+00 -4.8004500193230326e+00 1.5614089212884157e+00 0 0 0
89 1 1 2.7165681620711983e+00 -2.7422914686373052e+00 1.6087876277213025e+00 0 0 0
11 1 1 4.4032920701562134e-01 -4.9750661036530303e-01 2.9968647290491996e+00 0 0 0
157 1 1 4.2344030444459806e+00 -4.2365607433782984e+00 1.3267424552030289e+00 0 0 0
155 1 1 5.3834300427669826e+00 -4.3770433968967879e+00 2.2724815492173214e+00 0 0 0
152 1 1 7.5417375019016326e+00 -5.0528623157656174e+00 1.1659849602279817e+00 0 0 0
88 1 1 2.2300176908485829e+00 -2.0277775379308389e+00 1.1593556189186278e+00 0 0 0
91 1 1 2.8503249245330289e+00 -4.3246302283637110e+00 1.3874948291593157e+00 0 0 0
44 1 1 1.0598836015943056e+00 -3.4092811694873815e+00 1.5509167441865561e+00 0 0 0
86 1 1 1.8312807624599603e+00 -1.2933940273946163e+00 3.9012027205440047e-01 0 0 0
162 1 1 4.2253903097147756e+00 -1.6886400274016349e+00 2.5413570346672276e-01 0 0 0
46 1 1 1.5994016440690095e+00 -3.5778233727648732e+00 1.7691960682829269e-01 0 0 0
158 1 1 4.4863897593015531e+00 -3.4387411334421993e+00 1.7568963025085660e+00 0 0 0
154 1 1 5.9470385615012562e+00 -4.2062522595420484e+00 1.4929823512210150e+00 0 0 0
153 1 1 6.6494604142328022e+00 -4.7546684249018512e+00 1.0493215685449335e+00 0 0 0
160 1 1 3.6561263517423952e+00 -1.8136891210535804e+00 1.3462476881325312e+00 0 0 0
159 1 1 3.8455555649367996e+00 -2.7855236726160717e+00 1.3944293145066307e+00 0 0 0
93 1 1 2.5070737769342517e+00 -4.8386536904660566e+00 2.7899349664642346e+00 0 0 0
151 1 1 7.7452657774025324e+00 -4.6436238439854032e+00 3.6382576848018322e-01 0 0 0
92 1 1 2.8685358598947155e+00 -5.0623259040832327e+00 2.0004591924530555e+00 0 0 0
90 1 1 2.6730459596529137e+00 -3.4969108846142771e+00 1.0045258963221859e+00 0 0 0
43 1 1 1.3613777947806645e+00 -3.4626544164317035e+00 2.4523208241353203e+00 0 0 0
84 1 1 1.7511343369619539e+00 -1.6490132983950412e-01 3.7759604786199813e-01 0 0 0
87 1 1 2.6577913870583521e+00 -1.1952044557746113e+00 9.3776008158659607e-01 0 0 0
161 1 1 4.4457619777861170e+00 -1.2935278364617611e+00 1.0677764624826140e+00 0 0 0
42 1 1 7.3295325826220425e-01 -3.2533364262235542e+00 3.1960386418561386e+00 0 0 0
45 1 1 8.9950960579796457e-01 -3.7844834480531584e+00 7.4685485901615656e-01 0 0 0
94 1 1 2.3209234468404714e+00 -5.7394007684151953e+00 2.9793261810230232e+00 0 0 0
40 1 1 2.9662926651590327e-01 -3.9583810720695460e+00 3.8325724823426293e+00 0 0 0
61 1 1 6.0143733463442199e+00 2.0200428705382492e+00 -6.7850150884867197e+00 0 0 0
62 1 1 5.3667872842703286e+00 1.3483178771340825e+00 -6.9299575477767501e+00 0 0 0
60 1 1 6.2534640979981022e+00 2.7945626225141780e+00 -6.2264950635216589e+00 0 0 0
82 1 1 1.6462292874894460e+00 1.0089750511675324e+00 -7.6914749881818045e-01 0 0 0
59 1 1 6.2476659904945286e+00 2.2480744898584053e+00 -5.4782743150933371e+00 0 0 0
67 1 1 4.1159448713873861e+00 4.8849941278394027e-01 -6.6276244648400420e+00 0 0 0
80 1 1 1.8258564105934665e+00 1.1026694946023192e+00 -2.6936942090857787e+00 0 0 0
81 1 1 1.5270131501177087e+00 9.9406195300603473e-01 -1.7435852061857595e+00 0 0 0
58 1 1 5.5404742685354629e+00 1.6312847008865323e+00 -5.2762617644065717e+00 0 0 0
125 1 1 8.8797588581148168e-01 2.0284571239471116e-01 -5.1221667797609287e+00 0 0 0
63 1 1 4.5214723618290176e+00 1.7581106076866497e+00 -6.6056181414237241e+00 0 0 0
56 1 1 5.5379420829965946e+00 8.6485661518628265e-01 -4.1278344354423480e+00 0 0 0
57 1 1 5.3923087654668791e+00 1.8143433348176556e+00 -4.3217679115410412e+00 0 0 0
65 1 1 3.2732004785035054e+00 1.0738790283810200e+00 -7.6779431267579783e+00 0 0 0
64 1 1 4.0051756817433253e+00 1.7553475417443549e+00 -7.4235494156308102e+00 0 0 0
66 1 1 3.8450883832879676e+00 2.9785819442305622e-01 -7.5445046918718379e+00 0 0 0
128 1 1 3.0571715628108906e+00 8.1001518671551503e-02 -4.8770136794159731e+00 0 0 0
78 1 1 2.5763040876262475e+00 1.2999747077695561e-01 -3.1357215111571342e+00 0 0 0
79 1 1 1.5736213091709614e+00 1.4901860899096600e-01 -3.0370733973237312e+00 0 0 0
6 1 1 3.3285628816390894e-01 2.8012102598433293e+00 1.6321717837948060e+00 0 0 0
7 1 1 6.4646562709259714e-01 2.2209607958537947e+00 2.3169974547221082e+00 0 0 0
4 1 1 1.2746316794388217e+00 1.7865569167444353e+00 6.7155954121845285e-01 0 0 0
8 1 1 1.5475422104652037e+00 1.9306319321892613e+00 2.6427010316319377e+00 0 0 0
5 1 1 7.2083820256296560e-01 2.5793768267273625e+00 7.9356924412803431e-01 0 0 0
9 1 1 7.0925451550073171e-01 1.2893204591703098e+00 2.8953086907428358e+00 0 0 0
2 1 1 9.6391452903513170e-02 8.0313786051919034e-01 9.8062554855988326e-01 0 0 0
10 1 1 4.2981442263431457e-01 4.1886076711112152e-01 2.6846129964761629e+00 0 0 0
3 1 1 1.0915000527508876e+00 9.4667098941380856e-01 1.0307744485235113e+00 0 0 0
83 1 1 1.3188993302001164e+00 6.4304596027915162e-01 5.3342334586882804e-02 0 0 0

Velocities

182 -1.4727392632875391e+00 1.4444359125179040e+00 -1.0114092422247318e+00
181 -1.3596568329900602e+00 -9.0881553539717230e-01 8.4247263203842584e-02
185 -8.6938070290671554e-01 -1.5104844191275399e+00 -2.2811173536012178e-01
179 -1.2998426590069576e+00 3.2946062157573131e-01 -3.1135080065923187e-01
184 -3.9409648267009473e-01 -6.1646828094364381e-01 1.8061560871921095e-01
183 7.1717566733151616e-01 7.4398534733505783e-01 -3.5790380751282841e-01
180 -9.2448689996005073e-01 6.6315500964101259e-01 -1.2160719034973397e-01
178 -1.0770656783667423e+00 -5.1522017464410985e-01 -1.3103034950567343e+00
115 -7.8078474810625331e-01 3.8370368507035130e-01 3.0676466333849031e-02
116 -8.5472577949906303e-01 -5.9337888962323400e-02 4.2876778914241631e-01
186 -1.2533966574255206e-01 -4.2829175007787201e-01 1.2583246864108901e+00
187 -2.9350595380785693e-01 -1.0906377635991800e+00 -1.0919988103032925e+00
189 -1.1018940110836878e-01 1.7852418877244218e+00 -5.3685106963220619e-01
188 -2.6800192455884018e+00 -9.4873530849525670e-02 -9.5379567783717722e-01
112 -1.5627704367944831e-01 1.4531884862456801e+00 6.7689023046691110e-01
177 1.0935717415997304e+00 -1.5403068334147545e+00 1.7021545056369516e-01
175 -4.3390284100716170e-01 -1.2024342968080568e+00 8.3716170318437666e-01
190 1.4164524476409923e-01 8.7541320941955025e-01 -5.1350134739957332e-01
174 -1.0866362289203425e-01 -1.4876821254807344e+00 1.7395702735463980e+00
173 5.0922539012984669e-01 1.2533750042311274e+00 2.9542642499300309e-01
176 1.2054080590715510e+00 7.0082175264517310e-01 -4.8573435712620194e-01
117 8.1456118969016222e-01 -9.5284649535906030e-01 -8.1937066722758378e-01
18 1.5918789739049903e+00 9.1241410524163358e-01 -1.0441341713339536e-01
32 8.5868050636726603e-02 -4.5305858168271748e-02 -4.0214768441050724e-01
35 1.2856593347910434e+00 1.4584940061619767e+00 1.3677543212305092e+00
33 1.1273872489332373e+00 -1.4423990485440281e+00 3.6377707750102733e-01
109 -8.5004230853150009e-01 1.8934247888077052e+00 2.8100798057325282e-01
20 6.3439729687046886e-01 6.6476637410913442e-01 4.7367645753125914e-01
21 -1.0809754642187499e+00 1.2111241124303551e+00 1.9386796497191899e-01
19 -2.3963787507241427e+00 4.0648444448805721e-01 1.8877322968446912e+00
39 1.5266587547133614e+00 3.1142206648174453e-01 -1.1459743827253490e+00
110 7.1178295130462366e-01 -4.8947701705526220e-01 -5.8825518333543325e-02
108 -1.3317660917225258e+00 -5.0782074546609102e-01 3.0965477934606811e-01
37 1.9292973292981206e+00 4.6203172176068136e-01 -1.5520368611518465e+00
107 -1.0317644888891719e+00 -1.0720864498517718e-01 -1.5897372571885937e-01
23 -1.2140123186090437e+00 3.1208171231865894e-01 1.0233208468682748e+00
98 5.0018154356638533e-01 -1.4758662557216946e+00 -9.7549552449812782e-01
22 2.6136321636093252e-01 1.2739269235181296e+00 -9.3736864182809299e-01
99 8.8920252840203506e-01 7.8292697211577911e-01 -4.7110605964391311e-01
100 1.1407118350307859e+00 -6.7706897889375961e-01 -2.3202511584728852e-01
101 -1.2040393976282386e+00 6.1953657083929403e-01 -5.6119846602078793e-01
106 -4.6194763027299557e-01 -1.0875977089195712e+00 -1.6654646863802511e+00
31 3.8944137202916985e-02 -6.7719739814946367e-01 -2.4989078391224613e-02
15 -1.0537432642391284e-01 -3.5585801326432021e-01 -2.7577952401399680e-01
24 7.9743292885315689e-03 6.9267401634472447e-01 -8.4847278419132866e-01
103 -2.1280597013768041e+00 3.7500592543279465e-01 1.0617012605011641e-01
102 -8.6089230818726015e-01 7.8416940679273783e-01 -4.0733612880246448e-02
105 -9.3230228180785657e-01 4.3102615532746547e-01 -1.3438027153865508e+00
104 3.8211960139393802e-01 -2.2769706579261167e-01 1.2030889420014663e+00
28 -4.9343137507401413e-01 -1.2920036194675286e+00 1.0190930531569788e+00
27 -2.7360850264260511e-01 7.6919789283374629e-01 4.9618622504239468e-01
26 -7.7839467569497195e-02 5.3208109314202068e-01 1.1059228568786303e+00
25 9.0328942002557100e-01 1.6463758185925037e+00 9.5093945218141707e-01
29 -3.9290525838273527e-01 7.7611252351473603e-01 -2.6068647716074506e-01
30 3.2952974498198229e-01 1.3897803912789293e+00 -1.6001458033630229e+00
34 -1.4622832521197802e+00 2.1365257223502793e-01 -4.7247286691170709e-01
38 1.9078805356393985e-01 -8.5646662756470471e-01 5.2734628074769740e-01
13 5.0392424495971133e-01 -2.2555925928167011e+00 -1.6299808047986561e-01
36 -1.1836185144775018e+00 -1.7766034077824850e+00 1.3809226584387002e+00
17 4.1803505520564127e-01 3.4233925728427668e+00 -3.8083228445739092e-01
14 -5.5069731325254689e-01 7.3518898388519827e-01 -6.5996818699393361e-02
16 -1.0464252312475450e-01 3.1208971244300782e-01 4.3361803906480817e-01
111 -1.0744160886729701e+00 -8.2475575283360036e-01 -1.0507209516603941e+00
12 -9.3023882694623905e-01 2.1312419718595379e+00 -1.6201866643780558e-01
97 2.8636562204392341e-02 -1.2916232440102959e+00 1.3318095133678045e+00
41 1.2749535198964626e-01 -5.6485579478153147e-01 -3.3460689271754901e-01
119 1.0052232447523861e+00 -1.4341916388279801e+00 -2.3155928018123223e-01
195 1.5125141940756509e-02 1.5676743677486606e+00 -1.9600168089769524e-01
196 -2.0029831849165287e+00 -2.9429428828324816e-01 1.7458599466443347e-01
193 4.8333998048713372e-01 -4.4944145468000252e-01 -7.7561187875892634e-01
197 6.5209404894903034e-01 -9.6619575606573194e-01 1.4512137020321825e-01
118 1.1186951458468131e-01 -2.3933762463330266e-01 1.1147259284638586e-01
122 -1.2245377340687072e-01 1.4248887826825452e+00 2.6536582943628961e-01
194 -1.3169360432415043e+00 6.8954077122291990e-01 1.0347689152733157e+00
121 -4.4368950059053491e-01 1.2394417548621204e+00 -1.3134623860607584e+00
192 -2.4022660369073115e-01 1.0750076067539609e-01 7.2480440689180903e-01
200 -2.5301640586423380e-01 -1.7178836084622087e-01 8.8838942148603617e-01
120 -2.0392082292153364e+00 -6.6537993579843668e-01 8.8359670368287180e-02
191 -8.7606087720102688e-01 -4.9134344867835311e-01 4.8905151368441080e-01
123 1.5448514973681879e+00 6.7444128977558582e-01 4.6776043957909752e-01
199 -2.1256661972008570e-02 4.5379852508096391e-01 9.8758462769575384e-01
113 -2.2105975051905111e+00 -7.7917206863462229e-01 3.9680409097164138e-01
114 -5.3039214044578065e-02 3.1689496100346004e-01 7.7475693242872479e-01
1 1.2072466812950784e+00 -9.5662973712871913e-01 5.8356175278106326e-01
198 3.8518648558861801e-01 -6.5370179404008222e-01 -1.6414757782696685e-01
68 2.9086152181588937e-01 -6.0291034066928006e-01 1.0644557786386762e-01
164 3.4911521966945966e+00 2.2142871158517122e-01 3.7726426380322459e-01
70 -1.8082389800821670e+00 2.1100401657058326e-01 -7.4447215221680574e-02
69 3.3572711346681383e-01 3.5892176307325263e-01 6.8563934555198414e-01
171 2.8717511432469291e-02 2.1296777832394348e-01 -1.5063750800436265e-01
168 -4.2118737669944378e-01 -1.5143588982656022e+00 1.4601643421838593e+00
72 -1.7649526381772089e+00 1.0924040185787203e+00 1.9256043660191011e+00
73 1.5096594749284349e+00 6.3103437488042413e-01 1.2764794448313594e+00
71 7.0809356173428750e-01 9.6869775040832273e-01 -1.6203989558639167e+00
150 -6.2381752477286345e-01 1.1786872921028255e+00 -1.4922919532576779e+00
53 -1.4926537700256237e+00 1.0285270520822074e+00 1.6650709808530375e+00
74 5.6822364878728826e-01 -3.8830799909827962e-01 -1.6412734568519947e+00
135 4.0290857426442400e-01 1.9277633804510227e-01 4.6805314503943130e-01
75 -1.0408214447798247e+00 -2.4563535829406888e-02 -1.3637403302392186e+00
134 1.4672081706634730e+00 -2.0717041350904075e-01 2.1913769997653780e+00
133 2.2992829869010636e-01 4.0487102059197960e-01 -6.5677783887543098e-02
132 5.8440968846283337e-01 3.6426364704600739e-01 -9.6252729387249991e-01
136 6.6587274553295084e-01 -4.7422365985780351e-01 -1.3911225874534278e-02
137 8.4891427347471327e-01 1.8715819350104096e-01 -1.6926464093939211e+00
138 -6.1704427717341037e-01 -4.8502118992716925e-01 4.1794645672927566e-01
139 -1.0832792061061683e-01 7.4622461510773230e-01 -5.8052577769736669e-01
76 -1.4357195618186231e+00 1.2427014383172652e-01 -1.8229151196928430e+00
77 5.9104272661838664e-01 1.1876486405088515e+00 -1.9291954391835775e+00
130 -9.3816014514847212e-01 6.6906121071195368e-01 2.0522139209734793e+00
131 4.5604448533644815e-01 -5.6806322850251689e-01 -5.9519046664328246e-01
129 1.1257331587062953e+00 -4.8962179987656390e-01 4.2170389009413334e-01
170 -3.6538316720979636e-01 9.4555400980885973e-01 1.3150254716493825e+00
140 -1.5114738318376413e+00 -7.2639971869365394e-01 6.9052664834033139e-01
141 -1.4484918688014922e-01 -8.2120600183487502e-01 -7.5721313971999638e-01
142 -8.9490317977446987e-01 -3.5236919247543075e-01 -8.9234717067772840e-01
146 -1.8697470148741901e+00 -2.3552801044947080e-01 7.5051049389301050e-01
147 -8.9666098743811140e-01 -5.3667794282018599e-01 5.1672552806640426e-01
167 -1.2010649567572869e+00 -2.7420644123162274e-01 -9.1356087161622879e-01
54 8.5013409856321986e-01 -4.6404730392290777e-01 8.6207328424948992e-01
55 1.1563282397142409e+00 7.4972112435880045e-01 2.6143046943353569e+00
143 -3.8884146355493998e-01 -5.5294056073673259e-01 9.8827875820759581e-01
144 1.0154719176288394e+00 4.2386598267785242e-01 3.3428399383910995e-01
145 4.8050355702141823e-01 -3.5951237363741140e-01 1.4002160218995152e-01
148 1.0934431428043984e-01 -1.1298972565124685e+00 4.4502038805794109e-01
149 -6.9693299948175591e-01 -6.0398351806813499e-01 6.4383698831345004e-01
163 -1.1105716197385287e+00 1.5361195940148620e+00 -1.0211371758728875e+00
166 4.5504723361791644e-01 -1.8953001251685450e-01 -1.0529203056001683e-01
52 2.2828347063955814e-01 -7.8043032545903634e-01 1.2819780539614347e+00
169 -1.3352568273843532e-01 1.0009985132987604e+00 -7.1263330450363860e-01
50 7.8053872964062210e-01 -4.8486602551356872e-01 1.7248600502828202e+00
49 -2.0494388889407178e+00 1.1200647916977489e+00 -6.4725948292702218e-01
48 -1.0301008132236653e-01 -3.6841515808032774e+00 -1.1632065972700534e+00
47 9.0108615838489359e-01 2.0843658422859481e+00 1.9853429579754815e+00
165 -5.4840896069854345e-02 -1.1591317722744054e+00 5.1438263817755470e-01
51 8.3706378251040836e-01 1.6689328230166935e+00 7.8304948998551349e-01
127 -2.5032554333474205e-01 -8.9954301827708172e-01 -8.0816049765700448e-01
126 -1.1471499141258519e+00 1.3021797816127385e+00 -8.5339321336890361e-01
85 8.3976798818175313e-01 -3.5693685932680463e-02 -8.9657874571094531e-01
172 1.1730520898511430e+00 -1.7074216576346168e-02 4.7584378635225222e-01
124 1.0580284035752054e+00 1.1732065570165957e+00 3.1705792877913125e-01
95 4.6919661062681476e-03 -5.4013895587340444e-01 -1.0026382684700830e+00
96 1.4112484422576665e+00 1.1768729435063336e+00 -3.5378620190804649e-01
156 1.2695020384233571e+00 3.4046558515967729e-01 -9.4960935218223008e-01
89 1.1310832818807020e+00 8.7037627316204802e-01 1.0604976315649957e+00
11 -2.0244240707917096e+00 4.1883848763408071e-01 -2.1602504967476069e-01
157 1.9807187255396339e+00 1.5388424134439167e+00 -6.3146923545028644e-01
155 -1.0259962014416266e+00 -9.8111396488796798e-02 -1.2561470940175314e+00
152 -1.5141950969979101e+00 -4.9363995895991819e-01 5.0331087948536080e-01
88 6.1193948387311647e-01 4.9146631642562610e-03 -9.5677577446842643e-01
91 3.2384627499427371e-01 5.1419620750225725e-01 -1.6275936383853291e+00
44 -5.0723096706123579e-02 -7.9090397753267649e-01 9.5160930577781189e-01
86 1.8307170477323640e+00 1.4617923629953442e-01 -1.4741070204616089e+00
162 4.8218761207820998e-01 -5.2260361461030094e-02 -2.7231535073079438e-01
46 -1.5056896245130216e-01 -4.4620003213338999e-01 -7.9383655889741100e-01
158 8.9640295927600200e-01 8.5499488366079002e-01 7.5081614798534202e-01
154 -2.5175075751560291e-02 -7.2555016439756825e-01 -3.5287875431415328e-01
153 -2.0344445958494730e+00 -1.6809675849823152e-02 -1.6328933830943200e-02
160 6.9394961312191750e-01 1.6151009021245506e+00 1.6491125238661081e-01
159 -1.2809111579464696e+00 5.0665716821072870e-01 5.0773092351905369e-01
93 5.2991332857421236e-01 -7.6891106831265721e-01 -3.9379989357866907e-01
151 -5.3028298888860881e-01 -1.1379782609828676e-01 -1.5438198836308709e-01
92 -5.0295375393463981e-01 9.8728340643326884e-01 9.2971572800678137e-01
90 9.0138895844325895e-01 -7.8313994320858316e-01 -1.5266547746174658e-01
43 -8.5822933041521188e-01 -8.3399201209546872e-02 1.6950555211301519e+00
84 2.2083382164135038e-01 3.5099254930653367e-01 9.9135676601953060e-01
87 1.1931551819139663e+00 -3.6500487836940515e-01 -1.7287242320087473e+00
161 -8.3777895788955048e-01 5.5991291440010593e-01 1.7493400923425633e+00
42 -1.2495631037779884e+00 -1.5195356265089504e+00 9.0688613861271949e-01
45 -4.3304617877338936e-01 2.4209504058119906e+00 -1.9598756459465325e+00
94 -9.6075721218080679e-01 9.8337714357701977e-01 -1.1202137418754476e+00
40 2.0125586095022688e-01 3.7050148494125912e-01 1.5668407669443923e-01
61 -1.8463244145023523e+00 7.7673571865100333e-01 4.9319467112334442e-01