LAMMPS data file via write_data, version 12 Dec 2018, timestep = 20000

200 atoms
1 atom types
200 bonds
1 bond types
200 angles
1 angle types

-3.5000000000000000e+01 3.5000000000000000e+01 xlo xhi
-3.5000000000000000e+01 3.5000000000000000e+01 ylo yhi
-3.5000000000000000e+01 3.5000000000000000e+01 zlo zhi

Masses

1 1

Atoms # angle

27 1 1 -4.4075548023255466e+00 -3.8255593708313529e+00 -4.1476848756615858e+00 0 0 0
29 1 1 -5.4553705124886465e+00 -4.2396038956345121e+00 -3.6822196837055885e+00 0 0 0
31 1 1 -7.2281918592362819e+00 -3.8643593026249214e+00 -3.8204535073131569e+00 0 0 0
32 1 1 -8.1258031137536939e+00 -4.0957733872540434e+00 -3.6534906027778882e+00 0 0 0
30 1 1 -6.3129016135071820e+00 -3.8799722140154573e+00 -3.4679820189972075e+00 0 0 0
28 1 1 -4.6779182408319446e+00 -4.0316020766290803e+00 -3.2231719744499472e+00 0 0 0
24 1 1 -5.1811127326795203e+00 -2.2621280473331651e+00 -3.1449393578987928e+00 0 0 0
25 1 1 -4.7185377585507480e+00 -1.9895998049035735e+00 -3.9819992166279112e+00 0 0 0
26 1 1 -4.7204290989370561e+00 -2.9084723597002506e+00 -4.3019276846769179e+00 0 0 0
33 1 1 -9.0676809549415722e+00 -3.9586835822563504e+00 -3.4929428896259394e+00 0 0 0
23 1 1 -4.6169973336271859e+00 -1.6544462622811487e+00 -2.5700036851037833e+00 0 0 0
42 1 1 -1.0155006033053366e+01 -4.5118479464448589e+00 -6.0380376627497356e-01 0 0 0
41 1 1 -9.4748551514383461e+00 -4.9159058252369521e+00 -1.0967015425477060e+00 0 0 0
35 1 1 -1.0078862336618263e+01 -3.6631124112283855e+00 -2.9750043890265139e+00 0 0 0
34 1 1 -9.2542237830867506e+00 -3.8705527094645373e+00 -2.5443334826633359e+00 0 0 0
22 1 1 -4.0804189563582973e+00 -8.8385996725361560e-01 -2.5743681180331430e+00 0 0 0
136 1 1 -5.7542270137458145e+00 -2.5973925185273941e+00 -1.0820794345288727e+00 0 0 0
134 1 1 -7.1337750086803879e+00 -1.3496962477416390e+00 -1.1838362479411237e+00 0 0 0
39 1 1 -8.8117160483990329e+00 -3.4640970780027724e+00 -1.4137485223846840e+00 0 0 0
40 1 1 -9.1429179253377413e+00 -4.2702437864413652e+00 -1.6560277899462186e+00 0 0 0
37 1 1 -1.0552810044151473e+01 -2.8465149320148182e+00 -1.3126255489903138e+00 0 0 0
36 1 1 -1.0375234711108130e+01 -3.2899361888095733e+00 -2.1586319071676559e+00 0 0 0
21 1 1 -3.5577278674795538e+00 -1.2429063166104124e+00 -1.8250741602022893e+00 0 0 0
20 1 1 -4.0459113485313747e+00 -5.0291293901574652e-01 -1.3534072003943876e+00 0 0 0
19 1 1 -3.2993028886012108e+00 -7.9332141696184089e-01 -9.0049877349136886e-01 0 0 0
135 1 1 -6.3519519279815011e+00 -1.8751743197923805e+00 -1.3147770696249554e+00 0 0 0
18 1 1 -3.5237151559215008e+00 -9.3702482740240889e-01 -3.5817870122722209e-02 0 0 0
38 1 1 -9.7245500722195288e+00 -3.3384425351955103e+00 -1.2991321204556452e+00 0 0 0
137 1 1 -5.0591175317140777e+00 -2.8327958664931447e+00 -4.7521018039547258e-01 0 0 0
138 1 1 -4.1415378558300038e+00 -2.7734188946695353e+00 -6.8012962812493172e-01 0 0 0
133 1 1 -6.5841731536467929e+00 -6.2027589601290589e-01 -1.0250085256029353e+00 0 0 0
17 1 1 -4.2376186930184492e+00 -1.5683528204326200e+00 -3.3470155408870345e-01 0 0 0
139 1 1 -3.1510513036781393e+00 -2.7196909825149782e+00 -6.5884985012294783e-01 0 0 0
132 1 1 -5.8982074677115826e+00 -4.3227103365936048e-02 -1.4820726726550084e+00 0 0 0
131 1 1 -5.5396296675903463e+00 -1.6336336580534908e-01 -5.6200653506204667e-01 0 0 0
140 1 1 -2.5410302728321041e+00 -1.9502745127824481e+00 -6.5862727651850150e-01 0 0 0
44 1 1 -9.6815811875694546e+00 -3.4701397271485006e+00 -1.6138550038669419e-01 0 0 0
130 1 1 -4.6070521559311848e+00 -4.7828482467366068e-02 -2.3836221060929480e-01 0 0 0
141 1 1 -1.8690924333172874e+00 -1.3841178474876525e+00 -2.6833158940817992e-01 0 0 0
45 1 1 -8.8007818028734359e+00 -3.8640738062978151e+00 1.6012649925502975e-01 0 0 0
143 1 1 -1.3231550918952433e+00 -1.6595500778208179e+00 7.5251754969493734e-01 0 0 0
70 1 1 -3.8885886910525980e-01 -3.2472230610926300e+00 1.0456813116714312e+00 0 0 0
199 1 1 -1.7247074952996748e+00 -1.6923954498485425e-01 1.5761471490699563e+00 0 0 0
52 1 1 -8.0128535319519649e+00 -3.6966502928226932e+00 3.5296857041605634e+00 0 0 0
5 1 1 -1.6575645229904308e+00 -2.6136278970030604e+00 3.7959925465650906e+00 0 0 0
49 1 1 -7.7148487079579278e+00 -2.8832081494703772e+00 1.7244394924974993e+00 0 0 0
6 1 1 -2.0300526731217272e+00 -3.5427173734167980e+00 3.6487109285855341e+00 0 0 0
142 1 1 -2.3220768613533189e+00 -1.6948483306582118e+00 5.5562121868393388e-01 0 0 0
7 1 1 -2.8221623790875987e+00 -3.2933658676883635e+00 4.0896237488310758e+00 0 0 0
69 1 1 -1.3022222282038263e+00 -2.9704816488643635e+00 8.8205642536089279e-01 0 0 0
11 1 1 -4.9258744027507309e+00 -4.4701671321020893e+00 2.8317206969339974e+00 0 0 0
46 1 1 -8.6636420862566634e+00 -4.7070712806439969e+00 6.3204817871185381e-01 0 0 0
13 1 1 -4.8092385922423233e+00 -3.7025423672929469e+00 1.6964450400808420e+00 0 0 0
43 1 1 -1.0273839190153248e+01 -4.0757605727811423e+00 2.4156386425693657e-01 0 0 0
50 1 1 -7.9834487889416836e+00 -2.2108335980555465e+00 2.4577596024422914e+00 0 0 0
14 1 1 -5.0383283916494603e+00 -2.8336312948523301e+00 1.7966310975588176e+00 0 0 0
15 1 1 -4.4215203731718633e+00 -2.1673114430208935e+00 1.4706441403847059e+00 0 0 0
51 1 1 -8.0861630872341461e+00 -3.0640516009192731e+00 2.8252046628667862e+00 0 0 0
47 1 1 -8.9534316397783869e+00 -4.0209886911932289e+00 1.2616035436803159e+00 0 0 0
10 1 1 -4.4868532177346703e+00 -4.5054936864486290e+00 3.6863792094899148e+00 0 0 0
66 1 1 -2.6090507119966375e+00 -1.8867676766144668e+00 2.0389811686574917e+00 0 0 0
67 1 1 -2.2203886112945059e+00 -2.7200328865086023e+00 1.8052674465793148e+00 0 0 0
68 1 1 -1.9761485966252470e+00 -3.5034453543207298e+00 1.2856146132280750e+00 0 0 0
12 1 1 -5.2730731338081123e+00 -3.6795281483687505e+00 2.5348811622477347e+00 0 0 0
62 1 1 -4.6125953637474204e+00 -9.7101647934457846e-01 2.1652899398065020e+00 0 0 0
63 1 1 -3.8567945536894057e+00 -1.4814021518176623e+00 2.1484612287209401e+00 0 0 0
152 1 1 -3.4174013061154590e-01 -4.2065803746797199e+00 1.3760231922231771e+00 0 0 0
3 1 1 -1.9584894335340211e+00 -1.6569577574675789e+00 3.2974197085028991e+00 0 0 0
16 1 1 -4.5026671960047322e+00 -1.9340432511622088e+00 5.1874971489878918e-01 0 0 0
54 1 1 -8.4214238785693851e+00 -3.9744133742902017e+00 4.4906873278606252e+00 0 0 0
56 1 1 -7.8225126749130602e+00 -2.7961376244293308e+00 4.6641643348706010e+00 0 0 0
55 1 1 -8.6144465621222626e+00 -3.0692724756453580e+00 4.1509702426486648e+00 0 0 0
53 1 1 -8.3049097851951323e+00 -4.6226736063190694e+00 3.7986802418952865e+00 0 0 0
65 1 1 -3.4243501772439400e+00 -2.4076711543647180e+00 1.7985418000597180e+00 0 0 0
64 1 1 -4.1106681860764267e+00 -2.3502204501741089e+00 2.4199394169612911e+00 0 0 0
9 1 1 -3.8479121937265850e+00 -5.0211368628652888e+00 4.1261262176617928e+00 0 0 0
8 1 1 -3.4141298702541873e+00 -4.0869989642476821e+00 4.2728129806493254e+00 0 0 0
61 1 1 -5.3401295431084792e+00 -6.8842369184482000e-01 2.9077763209423373e+00 0 0 0
57 1 1 -7.4572279075783365e+00 -2.2396737296470928e+00 3.9986797461838166e+00 0 0 0
58 1 1 -6.5546266667836459e+00 -1.9286928379941641e+00 3.8684103105636698e+00 0 0 0
60 1 1 -6.1436868581259114e+00 -1.1610730161877971e+00 2.9009655599085913e+00 0 0 0
59 1 1 -5.6675762839920223e+00 -1.5588248026795979e+00 3.7524932802134194e+00 0 0 0
4 1 1 -2.5147631405882507e+00 -2.1721026017295610e+00 3.9224577385709498e+00 0 0 0
144 1 1 -4.3609804652989231e-01 -1.3110571897690440e+00 9.0028367413446664e-01 0 0 0
151 1 1 -3.9375808847026222e-01 -3.8764345550776462e+00 2.3703896456265485e+00 0 0 0
1 1 1 -2.2332966920240187e+00 -2.6109086527393155e-01 3.2807875457924069e+00 0 0 0
2 1 1 -2.7606076226736018e+00 -1.0850803394309461e+00 3.0938954099609983e+00 0 0 0
48 1 1 -8.4767762519295022e+00 -3.1474799227303918e+00 1.2688439718478191e+00 0 0 0
195 1 1 -6.2334563994821579e-01 1.0031349126479159e+00 -9.5174797432281544e-01 0 0 0
194 1 1 -6.1316454516004937e-01 1.3580375203468107e+00 -1.8560936650556938e+00 0 0 0
196 1 1 -1.0635467601675626e+00 1.3880132378336810e-01 -7.0742235871741976e-01 0 0 0
197 1 1 -1.8437003489552790e+00 4.3888875475217348e-01 -1.8064208149356664e-01 0 0 0
193 1 1 -5.3285551852127044e-01 1.8017085612166317e+00 -2.7046792020404493e+00 0 0 0
129 1 1 -4.9252358428737839e+00 8.3387403551361916e-01 -6.4290102493612977e-01 0 0 0
128 1 1 -4.3982937329147660e+00 1.6459223238342562e+00 -6.4889816907224274e-01 0 0 0
192 1 1 -2.9599021219142020e-02 1.0072241644801998e+00 -2.6936735678155852e+00 0 0 0
127 1 1 -3.8006397422857066e+00 2.0486535395439440e+00 2.5126094933521567e-02 0 0 0
126 1 1 -3.5834815712895054e+00 2.7375855622043614e+00 6.6621861526785708e-01 0 0 0
123 1 1 -1.4655976666455950e+00 2.9415045112634171e+00 1.6525262364930930e+00 0 0 0
198 1 1 -1.5905582245214298e+00 3.7915591787415374e-02 5.8780389845466685e-01 0 0 0
122 1 1 -9.0328239591912352e-01 3.2129573809036924e+00 9.0382802021010455e-01 0 0 0
125 1 1 -2.8884358354642301e+00 3.3699933149690056e+00 6.0177098204175516e-01 0 0 0
124 1 1 -1.9445343002179392e+00 3.2365167481247816e+00 7.8470725756262050e-01 0 0 0
119 1 1 -1.5774580905290139e-01 2.8522403697451719e+00 2.8955988861215487e+00 0 0 0
121 1 1 -3.2183309643160646e-01 3.4305422888499759e+00 1.6459628083733930e+00 0 0 0
200 1 1 -1.7199343832122798e+00 3.2090602491407397e-02 2.5160220920258296e+00 0 0 0
162 1 1 4.2379578820820516e+00 -2.2776040371184272e+00 -5.1125222694543049e-01 0 0 0
163 1 1 4.9299574638713395e+00 -1.5882359172435105e+00 -3.9154060794359619e-01 0 0 0
165 1 1 3.9437109451523455e+00 -6.9163637961208391e-01 -4.2013849616888388e-01 0 0 0
166 1 1 3.0986634176663261e+00 -1.1205828580942123e+00 -9.3103317583216799e-02 0 0 0
78 1 1 3.9989126279084957e+00 -2.4974346748685794e+00 2.9966023377119630e+00 0 0 0
76 1 1 3.0154602002771647e+00 -2.7285171318685775e+00 3.4075260974679469e+00 0 0 0
150 1 1 3.1786216357483632e-01 -4.1376562166786783e+00 3.0565536372094053e+00 0 0 0
75 1 1 2.3797490313046441e+00 -2.8593170544354307e+00 2.7298929789304114e+00 0 0 0
79 1 1 4.4032171047447752e+00 -1.8810430291785598e+00 3.5117305533696754e+00 0 0 0
80 1 1 5.0874497358917319e+00 -2.5832286831078743e+00 3.2881135955666396e+00 0 0 0
154 1 1 9.7930475489871782e-01 -4.7991207704442953e+00 1.2050071087965790e+00 0 0 0
155 1 1 1.5580247852443292e+00 -4.2308198660985497e+00 1.7111635161045360e+00 0 0 0
72 1 1 1.2477990115793269e+00 -2.8101367603386724e+00 9.2446251570395876e-01 0 0 0
77 1 1 3.5978196621947034e+00 -3.4159449072516672e+00 2.9850376424831553e+00 0 0 0
81 1 1 5.8600045202909419e+00 -2.8960960885958684e+00 2.7998291810971505e+00 0 0 0
146 1 1 9.5252679942436791e-01 -1.6067127436194928e+00 2.0825173319243016e+00 0 0 0
153 1 1 1.1166439401787528e-01 -4.9120468152657297e+00 8.1816538749440393e-01 0 0 0
158 1 1 3.7675587860982236e+00 -4.8877055627524948e+00 3.7403336160725631e-01 0 0 0
83 1 1 5.9625374314092392e+00 -4.6086647378821635e+00 3.0816938472094204e+00 0 0 0
82 1 1 5.6452396119894397e+00 -3.7285477570482932e+00 3.0663103240829184e+00 0 0 0
84 1 1 5.1248918830461099e+00 -4.6892979686218883e+00 3.4783322590908710e+00 0 0 0
85 1 1 5.5712865127100297e+00 -4.3162868962504692e+00 4.2874220165510604e+00 0 0 0
86 1 1 6.3271169624517762e+00 -3.7689525952669460e+00 4.0210070661465505e+00 0 0 0
87 1 1 6.9735347194385033e+00 -3.1293715014932575e+00 4.1873427441816480e+00 0 0 0
90 1 1 7.6853274292732250e+00 -1.6144118179622258e+00 3.5086605564534543e+00 0 0 0
88 1 1 7.5200500965535744e+00 -3.4698663000135523e+00 3.5500801000059803e+00 0 0 0
89 1 1 7.8242134698666073e+00 -2.6015246870081108e+00 3.3566271577727913e+00 0 0 0
71 1 1 4.5131019577313097e-01 -3.1839451911032981e+00 5.4976677346440705e-01 0 0 0
149 1 1 9.5046786848816389e-01 -3.6256604528219785e+00 2.5655234472608579e+00 0 0 0
148 1 1 1.3326205079832465e+00 -2.9197266499399306e+00 2.0468928935174837e+00 0 0 0
91 1 1 7.9204726095336087e+00 -7.1749097449815891e-01 3.0906453479944034e+00 0 0 0
73 1 1 2.2046453765081386e+00 -2.9609308241657515e+00 1.1922663360917294e+00 0 0 0
156 1 1 2.4580245113605494e+00 -4.6489451319277659e+00 1.5992906067592698e+00 0 0 0
167 1 1 3.2528132525552391e+00 -2.7195839287127821e-01 3.9904407136229347e-01 0 0 0
74 1 1 2.8469514132328704e+00 -2.8004933703146357e+00 1.8708106132434796e+00 0 0 0
147 1 1 1.6576772998892206e+00 -2.0759157667241754e+00 1.5805843244998397e+00 0 0 0
145 1 1 3.8482551059243995e-02 -1.3137144514352315e+00 1.7825605987230639e+00 0 0 0
160 1 1 4.0268530690159929e+00 -3.0317859306758321e+00 7.3436881596184111e-01 0 0 0
159 1 1 3.9612227372237374e+00 -3.9810805702148033e+00 4.3051601568089787e-01 0 0 0
157 1 1 3.0118429850425286e+00 -4.4780428456053922e+00 7.6798821801208916e-01 0 0 0
161 1 1 4.6332753263294055e+00 -2.4223174755890122e+00 3.6312066309026997e-01 0 0 0
164 1 1 4.6451551812562109e+00 -8.5414917877073060e-01 1.9768286350147871e-01 0 0 0
187 1 1 2.5066844290070733e+00 1.3834846732621613e+00 -1.2008635955107785e+00 0 0 0
105 1 1 4.5234559349243000e+00 1.3627190556380089e+00 -7.2345448914336719e-01 0 0 0
185 1 1 7.1609408764746274e-01 1.2367927092833135e+00 -1.2209686679482437e+00 0 0 0
180 1 1 2.1186598714465976e+00 3.3225989175471131e+00 -7.0020118004906295e-01 0 0 0
104 1 1 5.2585468581677972e+00 1.8512073481078355e+00 -3.7756099744975957e-01 0 0 0
189 1 1 1.7661133747500541e+00 1.9684261274678940e+00 -2.7086950611474445e+00 0 0 0
186 1 1 1.5657291493877843e+00 1.5504449946506247e+00 -9.0646424824409932e-01 0 0 0
181 1 1 1.7377960508790193e+00 3.9709475769904810e+00 -1.3622312552388489e+00 0 0 0
188 1 1 2.1659326732666497e+00 2.0726355568017865e+00 -1.7783081118882009e+00 0 0 0
101 1 1 7.2346427568803096e+00 2.9294967820060052e+00 -1.9891041835831683e-01 0 0 0
190 1 1 8.8383445628644752e-01 2.1294540902472252e+00 -2.4288172101825043e+00 0 0 0
184 1 1 6.4216750290666658e-01 2.1537861237569542e+00 -8.9699419830756533e-01 0 0 0
102 1 1 7.0889308820975687e+00 1.9762619940353494e+00 -2.0536398152555813e-01 0 0 0
178 1 1 3.1661059674976411e+00 3.5541130905540665e+00 -4.3955482569588383e-01 0 0 0
183 1 1 5.8670564060076646e-01 3.0114588075664770e+00 -4.9560255210745019e-01 0 0 0
182 1 1 9.9504652924384140e-01 3.9277946535718646e+00 -6.4226697033041114e-01 0 0 0
191 1 1 6.4857808647739035e-01 1.4951856867205577e+00 -3.2293747978454186e+00 0 0 0
106 1 1 3.7723244367605031e+00 1.8577811244811153e+00 -3.3021343352885774e-01 0 0 0
170 1 1 2.5685725389947347e+00 1.0150086284561202e+00 2.5485190599366003e+00 0 0 0
93 1 1 7.2178469585374367e+00 4.5143835700104623e-01 4.1259571112558335e+00 0 0 0
94 1 1 7.2023928319118795e+00 1.4025014243630669e+00 4.0954182913194659e+00 0 0 0
110 1 1 1.9250745442363371e+00 1.7158045924100322e+00 1.7848459336502700e+00 0 0 0
117 1 1 9.0480307080727729e-01 2.9794968207798038e+00 3.9952937359299572e+00 0 0 0
177 1 1 2.8425107888970960e+00 4.0981877700930607e+00 2.9263667207632288e-01 0 0 0
111 1 1 1.3975520271188207e+00 1.3215438002679616e+00 2.5512337407855266e+00 0 0 0
96 1 1 6.5700598220755460e+00 1.2435700980536677e+00 2.3397328483610473e+00 0 0 0
95 1 1 6.6561174710713145e+00 1.2628993908663024e+00 3.3290269597392346e+00 0 0 0
97 1 1 7.0650053946792069e+00 2.1072017959560418e+00 2.2729986829322573e+00 0 0 0
171 1 1 3.2965058358793362e+00 1.5547706080083372e+00 2.9759229456829437e+00 0 0 0
174 1 1 4.0767603062197582e+00 3.3421319249926897e+00 1.3481053805554872e+00 0 0 0
116 1 1 1.3842872371816120e+00 2.2225669018556666e+00 3.6520692457439008e+00 0 0 0
175 1 1 3.9771137608767249e+00 4.2032972499528887e+00 1.7748862144914637e+00 0 0 0
115 1 1 1.2592814602672937e+00 1.3917837140577569e+00 4.1318667465049685e+00 0 0 0
172 1 1 3.8146891435043822e+00 2.3203424002594368e+00 2.5640226833739401e+00 0 0 0
173 1 1 3.6984426443588552e+00 3.2200042225013443e+00 2.2085045565355954e+00 0 0 0
107 1 1 3.4819035470657331e+00 2.0214798963002023e+00 6.4194742355378243e-01 0 0 0
118 1 1 4.6066825870422540e-01 2.2889821233761198e+00 3.3694122954478560e+00 0 0 0
92 1 1 7.7374314227795402e+00 1.7566055485992516e-01 3.3928047292306052e+00 0 0 0
100 1 1 6.6606643476029301e+00 3.1296460444841196e+00 5.1423924217144479e-01 0 0 0
99 1 1 7.3527387021297379e+00 2.7131968556760886e+00 1.0403884746303680e+00 0 0 0
98 1 1 7.6523044042756583e+00 2.8017978751658115e+00 1.9456467351110116e+00 0 0 0
108 1 1 2.8787650241056473e+00 1.4090366565082473e+00 2.4164881245140263e-01 0 0 0
169 1 1 2.9454030186117830e+00 5.9971110684349316e-01 1.6888869232642614e+00 0 0 0
176 1 1 3.1234063050709859e+00 4.1813372467353060e+00 1.2745567470823425e+00 0 0 0
114 1 1 3.4671229662052783e-01 1.2794035817940768e+00 3.9995536230271234e+00 0 0 0
109 1 1 2.4811105491570729e+00 1.7432748934774243e+00 1.0108259304719769e+00 0 0 0
168 1 1 3.3579924890869752e+00 5.6355052751046963e-01 8.0638493947565015e-01 0 0 0
112 1 1 4.6541907399177601e-01 1.5347607435781643e+00 2.2484397367988036e+00 0 0 0
113 1 1 1.8062702490706767e-02 1.0965399455316516e+00 3.0813926414935739e+00 0 0 0
179 1 1 2.5901202491332826e+00 2.9095255993857050e+00 8.1200694796274106e-02 0 0 0
120 1 1 4.5056762042328613e-01 2.9424402605474480e+00 2.0962516595734324e+00 0 0 0
103 1 1 6.1394885686514762e+00 1.9431467015770703e+00 5.8445114129799330e-02 0 0 0

Velocities

27 9.4436371080967557e-02 -1.1308363445800899e-01 -7.9256563243787814e-01
29 5.6613198422049438e-01 -4.2898023817905717e-01 3.5246161415794452e-01
31 -1.2186576279084038e-02 -2.0098032004134425e-01 -1.1760744291315901e+00
32 -8.0402758248957998e-02 4.7493469539606936e-01 -8.8156869498879797e-01
30 1.4648637617104932e+00 -1.6017066837827858e+00 -4.4509839043421856e-01
28 -2.2392158327008826e+00 1.2807208653438396e+00 5.7597756265703126e-01
24 1.2365432240420846e+00 8.9936673098785586e-02 1.3131051152359927e+00
25 6.9446902060771309e-01 1.6535104827395392e-01 5.1080187732313709e-01
26 5.0965531405987818e-01 1.9525246517781174e+00 -7.3145564826718013e-01
33 1.6105481874509591e+00 -1.3332251920036037e-02 3.3052682902428543e-01
23 1.5412116936660669e-01 -5.8939595933208033e-01 1.6594995511272626e+00
42 -1.2090778610226165e+00 5.9313034467560599e-01 -4.7883296977308071e-01
41 1.5028622345329425e+00 -8.4311981797491320e-01 9.8944665532415033e-01
35 -9.0463504361674341e-01 -1.0482025474056527e+00 6.8105973174379919e-01
34 -1.3318720740515062e+00 5.1401802883282621e-01 8.2973535723115632e-01
22 4.9808648795090366e-01 4.8255914380762976e-01 -8.2759660476680108e-01
136 6.7079463076273704e-01 1.6125723551379718e+00 2.6176766265429028e+00
134 -7.7773274055831576e-01 -1.7018115612236233e+00 -5.4569419119636731e-01
39 8.6798691544095752e-01 -9.6749048386483383e-01 -1.7734008742979985e+00
40 -3.7502118783201160e-01 -5.3865324811822934e-01 -1.6002284899842176e+00
37 -8.7277384213118570e-01 -5.5960686158030404e-01 1.5504586926073443e+00
36 -2.8803722372958532e-02 -2.9290702012324210e-01 -1.4163085677561706e+00
21 1.3717514744979464e+00 8.5991791783194160e-01 2.4907632254045542e-01
20 -9.6623194147524150e-01 -4.1505309532063855e-02 1.3607339755862351e+00
19 -5.9472512974096547e-01 -6.0941460621716581e-01 -3.1661709442237712e-01
135 5.7761742381756176e-01 1.9384442053078001e+00 -3.4922615552965791e-01
18 3.0996690930332882e-01 7.1190858149674652e-01 8.8230366923089043e-01
38 -4.6674442494357071e-01 4.5253625442759723e-02 1.5298281594828012e+00
137 2.4204474684235091e+00 1.2308490441100772e+00 1.7175356878628389e-01
138 -2.1905793960943343e-01 9.8701408920762468e-01 -3.4596978724704669e-01
133 7.9452943643323004e-01 -3.5918220779901217e-01 -2.2555387504270623e+00
17 6.1579379165809078e-01 9.6067785895673941e-01 -6.4637279819447280e-01
139 1.5370461645880000e+00 2.7856854383935914e-01 2.3264207157623638e+00
132 -1.4116639538437508e+00 -1.3146265623164319e+00 5.8444631829201976e-01
131 -1.1672148574950780e+00 1.8725666206143594e+00 -5.4160574901174385e-01
140 5.4808197010796755e-01 2.3908449653520772e-01 -2.6334051552853033e-01
44 5.2053709967189943e-01 3.3649202943143020e-01 1.4502097045338698e+00
130 -7.5210827083557152e-01 4.7426312947052723e-01 8.1243766421038943e-01
141 4.7494977358141371e-01 -3.4518786004907187e-01 -2.2932738572283369e+00
45 -4.3526148241384777e-01 1.7131229900463050e+00 -6.6766152186490280e-01
143 8.2048383872135755e-02 -2.1475611278971534e+00 -4.4262345546722315e-01
70 -5.1547716160445156e-01 2.7409776014088522e-01 -1.2939897486252256e+00
199 -1.6759650868609136e-01 3.3975139056874110e-01 -1.6475531808823562e+00
52 3.9414670558628753e-02 -1.2775196575206256e+00 -6.5935265384554698e-01
5 2.5355936965554031e+00 -1.4555379532382640e-01 -4.9875674902393624e-01
49 1.5803570178192803e+00 -2.0275139380574463e+00 -1.3415677904552141e+00
6 1.7196183492179293e+00 1.9900541672303200e+00 -2.7407709410645653e+00
142 -5.7546406854256937e-02 1.7456290569464405e-01 6.1406203721997210e-01
7 -4.7426041361857990e-01 1.5245001960443498e+00 5.1476419646293126e-01
69 -1.1926166212821456e+00 2.8640937827274410e-01 5.3554258106957475e-01
11 -1.5247342442300929e-01 -1.2069859220792059e+00 -5.8049373583922637e-01
46 6.9777894467956160e-03 8.8396192958863851e-01 -3.0536858097459874e-01
13 2.4006095342249475e-01 -1.0048917315483101e+00 -5.2257142897489461e-01
43 -8.8163376462400567e-01 2.2144481778894067e+00 -2.8196394529594659e-01
50 1.1937740871674078e+00 7.8181941617637002e-02 -1.0274656638250884e-01
14 2.5692784495419962e-01 1.4530518090330307e+00 -7.8271695192937374e-01
15 5.4711860922227751e-01 -1.5592554838167838e+00 -6.3145072697834248e-01
51 3.7348114491894491e-01 -3.1855267930729469e-01 1.9788455348927214e-01
47 -2.7992856181225672e+00 3.2377934682563381e-01 2.5096033451140820e+00
10 -1.0069586271843138e+00 4.0981325343983480e-02 1.0512569780199148e+00
66 5.4776279586051491e-01 -1.1114880896782584e+00 -1.1856825692274422e+00
67 1.5369018068703482e+00 4.9887674050024422e-01 -1.5283312867871239e+00
68 -1.9196158926271814e+00 -2.3956864407854311e-01 -8.7991763861102423e-01
12 9.2965542953931904e-02 -9.2940570336681827e-01 -4.2221380534777808e-01
62 1.2599199030048824e+00 3.9725701283926890e-01 -4.8683159668977671e-01
63 1.0947225691389928e+00 -8.0124176307671963e-02 -5.4565874666724168e-01
152 -7.4886394991734373e-01 4.4735604236255738e-01 -2.4546617736434956e-01
3 -1.0516269658404123e+00 9.6089033056595241e-01 2.1988215120445581e-01
16 4.8837370432310256e-01 2.3850699222815813e-01 1.2299781551348292e+00
54 -3.2245401102171256e-01 -1.0927829228896928e+00 6.9181353210264873e-01
56 -5.8409721673674686e-01 1.7455255884360985e-01 -6.4948590849743382e-01
55 1.6463174117451744e+00 -1.4403353558852539e-01 4.2385448749052634e-01
53 6.5642817671515197e-01 7.4697404226597075e-01 -5.1891607188740230e-01
65 9.2216386379596371e-01 5.1223646526952316e-01 1.0013042802836549e+00
64 6.1749464823501243e-01 -7.5275001639665173e-01 7.6665902907038896e-01
9 4.2169257339763677e-01 -7.9960989296594798e-01 -3.9429949711105627e-01
8 3.0206041270364803e-01 -1.4074765422722019e-01 -9.5404172385337671e-01
61 1.3343328474932317e+00 2.4756828635923461e-01 -1.8437745476137896e-01
57 2.5991759402622255e-01 1.3687508963182937e-01 -3.9266459049090519e-01
58 4.1067928071390958e-01 5.5500780758746671e-01 -2.9828201898898732e-02
60 3.6070737021048299e-01 6.1588486383571017e-01 -5.6855075501358571e-02
59 -5.5803197073836286e-01 -4.3743059851292576e-01 -8.6324163153079891e-01
4 4.0254734303371031e-01 -2.1770519380075748e+00 -3.3328857426282132e-01
144 2.9248685316467915e-01 -5.1753549651906194e-01 3.6174519115007053e-01
151 1.0601653158962301e-01 1.8415378498718615e-01 -5.5134528554429663e-01
1 -6.1801491800737274e-01 1.1199211891580625e+00 6.4119784904536581e-01
2 -9.3502458575477498e-01 -9.1514135783060357e-01 6.5546882694210984e-01
48 1.3537625012792154e+00 1.1908935892736525e+00 -2.0008029252904652e-03
195 7.7555839879327404e-01 9.5888283754183190e-01 -5.9848031253439571e-01
194 -4.5909969642274384e-01 -9.1280353526046643e-01 6.0741139772995856e-01
196 -3.8511295158198589e-01 4.0022410115584223e-01 -1.0436113723757332e+00
197 1.2079870558618520e+00 -4.9639582521711156e-01 -7.4634133646421352e-02
193 -7.0916829560719263e-01 6.1251990094042985e-01 4.2420516113302699e-02
129 -9.1206424760438876e-01 3.3157209718296876e-01 -1.1821421007674822e+00
128 3.9849415838680669e-01 1.0373684446975562e+00 -2.1934212428778945e+00
192 -2.3840497323455323e+00 -1.7831214278688521e+00 3.8153287345389186e-01
127 9.3105279339579283e-01 -1.8091458164176362e+00 -5.1240249122722459e-01
126 1.0438083785512979e+00 -4.6179710418415770e-01 -1.0798826467030589e+00
123 1.3364184767126750e+00 1.1146900088369018e+00 6.9140232599374984e-01
198 -1.9929762907745360e-01 -4.2599527676489540e-01 -2.6672954800873627e-01
122 -1.1699848234810171e+00 -3.4653845867548752e+00 3.4046867007287140e-01
125 -1.5209413687171673e+00 -1.4539262400506219e+00 -1.6897117927149918e-01
124 6.0635192010475392e-01 1.6373854429788519e+00 1.0128266838587077e+00
119 3.7186107269426710e-01 1.5809743020508542e+00 -1.0481077882466751e-01
121 1.2836566020030971e+00 -2.7928389698015059e+00 4.8987556487897899e-01
200 1.3939772572925141e-01 1.9222838164845639e+00 1.6059826808362657e-01
162 -1.3065377434066625e+00 4.7880164885792548e-01 1.5830710537826667e+00
163 8.5625049754781124e-01 1.2064811809251068e-01 4.6519061159098196e-01
165 7.3193479178450327e-01 -1.1376848864831066e+00 5.8705619282877997e-01
166 -9.6069288468063185e-01 6.5344755787799658e-01 5.4322848774252197e-01
78 1.3438655809514450e+00 -1.3627975042368151e-01 -1.7907903943758346e-01
76 -1.8686657464186593e+00 -4.2460020020399364e-01 -1.0707663179663389e+00
150 4.6981006753685256e-01 -1.9878027849424254e-01 -6.3341666770200233e-01
75 -1.7781353390917041e+00 -8.4251899531772867e-02 1.1724685513813832e-01
79 9.7220044652703674e-01 5.3927041690389366e-02 -9.5971187984907669e-02
80 -1.0639630225360510e+00 6.4824359053933633e-01 1.0061936552035486e+00
154 -3.5540397128043932e-01 5.6230391734655338e-01 -4.2472428436713650e-01
155 3.9498320883418292e-01 2.4784897657732563e-01 1.3351195976667756e+00
72 6.4481638523420626e-01 -5.4185474382882549e-02 2.2334086371148590e-01
77 -8.8474660032646635e-01 -3.7659571264814773e-01 7.2039581970666644e-01
81 2.6068048324282994e-01 8.7588039128874684e-01 2.2877330004834487e-01
146 1.2097648637005930e-01 1.8018448214954221e+00 -4.8709287378923488e-01
153 -2.0660163735396280e+00 8.1997050290379014e-01 -1.8104732056177835e+00
158 5.8749262390889390e-01 -6.3054092315323751e-01 8.7290390815904229e-03
83 5.2496863694238638e-01 3.1915217627379400e-01 4.1704269426213081e-01
82 1.2082616446686822e+00 -6.0404051477327569e-01 -2.3094147026902589e-01
84 -1.7916453618454242e-01 -1.6860576180035882e+00 6.7484481696463361e-01
85 6.9705170890864399e-01 -2.4924901186783677e-01 -4.7246081972359200e-01
86 9.0726564230537532e-01 -1.5115148337440254e+00 2.3731537275169604e-01
87 -1.2022666471026611e+00 1.5873825063653537e+00 3.0891098736853523e-01
90 1.2215502121728012e+00 9.9777236639497102e-01 -3.0632167682443079e-01
88 -4.1743550719566302e+00 -4.8301713046044742e-01 -6.3618689786002869e-01
89 1.1546603146544869e+00 -2.2598078607318900e-01 8.7446242082132297e-01
71 7.2456916791401804e-01 1.3000287741673525e-01 -8.7512398173143369e-01
149 -7.7513103163362673e-01 9.2354471547752193e-01 7.0761657549233081e-01
148 -2.3475631177773240e+00 1.7727435389338515e+00 -4.8363586375860462e-01
91 -5.2970203486480383e-01 -1.2967059465782673e+00 3.8399405316687857e-01
73 2.4545544173005862e-01 7.7964750531925753e-01 7.4065542036596266e-01
156 -1.2354739360039482e+00 6.4471753717978897e-01 -2.9467844949907707e-01
167 2.1356682222152629e-01 7.4126468219028974e-01 -1.0549636267363518e+00
74 -1.6786871897460776e+00 -1.6970978406939893e-01 1.3000522722271473e+00
147 1.4506748467485631e+00 -5.2602581428117967e-01 -2.2130181612243555e-01
145 1.9338599672052528e-01 -2.3482935420781810e+00 -7.4569888278948587e-02
160 -2.5236029841838609e-01 1.6508856116234665e+00 -1.2787677914677104e-01
159 1.9887554532356494e-01 4.7215141727494642e-01 -9.5035377324257897e-01
157 -1.3851772035669951e+00 1.4052081741423912e+00 1.4296227194347866e+00
161 1.4033681372095144e+00 -1.1702282077389010e-01 8.1256273329414108e-01
164 -1.0443619904983172e+00 -3.5071473266957509e-01 2.8173003426737797e-01
187 -9.1380774447650037e-01 4.7442171063441746e-01 -1.0634683704926990e+00
105 6.3532427239474709e-01 -1.6852710641284094e+00 7.7224147160437351e-01
185 7.0738647514003095e-01 1.0287291423837230e+00 5.1259026139358266e-01
180 -6.7077928774297857e-01 -6.6625887935780337e-01 -2.5527787948895797e-01
104 -4.5408633687898836e-01 -1.1039501283424791e+00 -1.5813011591490749e+00
189 3.3794696082794146e-02 -1.3043288695153324e-01 -1.1747023209823775e+00
186 -6.1665394003600493e-01 -2.2115719148171462e+00 2.9067463032826291e-01
181 -1.2691529506957844e-01 -1.3507834261372553e+00 -1.3152983675666592e+00
188 -1.4847490938901058e+00 -7.1048028895283138e-02 5.3295762845708960e-01
101 -1.7333179992231473e-01 -2.4943293851389181e-01 -1.1713448844225089e+00
190 2.9371040811194471e-01 3.2472333968609346e-01 -1.8006497625658773e+00
184 -2.5704741723185953e+00 -2.0787504557489683e-01 -8.3490713080258261e-01
102 -1.3611716817000749e-01 -1.0741591162358206e+00 3.1965895495531277e-02
178 -7.3146364937858477e-01 7.4832191530467040e-01 6.2847560145787496e-01
183 -9.0816841935850559e-02 3.4268952488245485e-01 -2.9644202186670138e-01
182 9.4168654126631279e-01 -3.8055669818898014e-01 1.8082632103085111e-02
191 -1.7752157573075071e+00 -4.3755368040071616e-02 2.2242723567470690e-01
106 -9.8113852113554134e-01 8.7947783983226357e-01 -4.9778269106942780e-01
170 -5.2138908736326273e-01 -3.8862378690133204e-01 4.2659809624777167e-01
93 -6.1540891542994558e-01 -8.5918993939464583e-01 7.0730908372797363e-01
94 -7.4394777211174423e-01 -3.2942776012693803e-01 -1.2402300367360404e+00
110 -3.4380991286527302e-01 5.5077852465598442e-01 -6.6694700847827226e-01
117 9.5969392154898570e-01 8.6583152828080223e-01 -6.2883881858970953e-02
177 4.8045016620356823e-01 9.7108857451203934e-01 1.7434511757176572e+00
111 1.4285979261773025e+00 -2.1184125537519688e-01 -3.6576475568835864e-01